# vtk DataFile Version 5.1
vtk output
ASCII
DATASET UNSTRUCTURED_GRID
POINTS 8089 float
-9.95759e-06 0.999995 -2.15267e-08 -9.77766e-05 -4.1e-08 0.999995 -0.00981434 3.66107e-09 -0.999949 
0.0197156 -0.99974 4.23403e-07 1 0 0 -1 0 0 
-0.500472 0.00636302 -0.000275741 0.501469 0.00749218 -0.000782377 -0.0467237 0.497809 2.22045e-16 
-0.107777 0.994148 1.80084e-08 -0.194225 0.980961 5.69035e-08 -0.29079 0.956793 3.70479e-08 
-0.381767 0.924255 -9.20229e-09 -0.461752 0.886986 8.99404e-08 -0.55557 0.83147 0 
-0.634393 0.77301 0 -0.707107 0.707107 0 -0.77301 0.634393 0 
-0.83147 0.55557 0 -0.881921 0.471397 0 -0.92388 0.382683 0 
-0.954043 0.299662 -8.60684e-09 -0.980785 0.19509 0 -0.995185 0.0980171 0 
0.096944 0.995299 6.48027e-09 0.194023 0.980999 -3.07367e-08 0.279833 0.960048 2.13644e-09 
0.382683 0.92388 0 0.480032 0.877256 2.80095e-08 0.55557 0.83147 0 
0.634393 0.77301 0 0.714689 0.699422 -3.78669e-08 0.779182 0.626761 -3.60416e-08 
0.836863 0.54737 1.80919e-07 0.881921 0.471397 0 0.920048 0.391719 -2.74804e-08 
0.950989 0.30899 -3.53546e-08 0.978583 0.205659 1.12953e-07 0.995185 0.0980171 0 
0.995185 -0.0980171 0 0.980785 -0.19509 0 0.95694 -0.290285 0 
0.92388 -0.382683 0 0.881921 -0.471397 0 0.825393 -0.564493 -1.84486e-07 
0.76672 -0.641928 -8.88674e-08 0.700095 -0.713974 1.08915e-08 0.634393 -0.77301 0 
0.547355 -0.83684 2.10427e-08 0.46271 -0.886488 1.77327e-07 0.382683 -0.92388 0 
0.290375 -0.956904 -1.58492e-08 0.196057 -0.980576 -1.54048e-07 0.108667 -0.994092 -3.13001e-07 
0.387022 -0.000993419 0.048888 0.313404 -3.73672e-05 0.0732075 0.240928 -3.24012e-06 0.0917657 
0.166145 -3.13803e-07 0.10562 0.0898163 -3.13287e-08 0.11442 -0.00071525 2.22045e-16 0.118034 
-0.0935159 2.22045e-16 0.114116 -0.1873 2.22045e-16 0.102233 -0.266167 2.22045e-16 0.0858893 
-0.353399 2.22045e-16 0.0607121 -0.477744 0.14919 -0.0002684 -0.449141 0.219759 -1.4712e-05 
-0.397787 0.302922 2.22045e-16 -0.343911 0.362931 2.22045e-16 -0.284773 0.410971 2.22045e-16 
-0.214243 0.451768 2.22045e-16 -0.138983 0.480292 2.22045e-16 0.476303 0.152108 2.22045e-16 
0.447648 0.222728 2.22045e-16 0.398314 0.302228 2.22045e-16 0.329728 0.375866 2.22045e-16 
0.252497 0.431555 2.22045e-16 0.156691 0.47481 2.22045e-16 0.067239 0.495451 2.22045e-16 
-0.995222 -0.0970396 2.18146e-08 -0.980785 -0.19509 0 -0.95694 -0.290285 0 
-0.92388 -0.382683 0 -0.890465 -0.45482 2.56135e-07 -0.842169 -0.539112 -1.32692e-07 
-0.786389 -0.617573 -8.47265e-08 -0.714716 -0.699311 -5.61832e-07 -0.634393 -0.77301 0 
-0.55557 -0.83147 0 -0.471397 -0.881921 0 -0.382683 -0.92388 0 
-0.279933 -0.960002 -1.03764e-08 -0.185451 -0.982635 -3.46731e-08 -0.0882389 -0.996035 -4.56543e-07 
0.89976 -0.00321413 -0.0120237 0.799647 0.00546107 -0.00196934 0.695958 0.00550275 -0.00152725 
0.6 0 0 -0.591396 -0.00357949 0.00227776 -0.7 0 0 
-0.794108 0.00426605 -0.0120053 -0.899834 0.00277446 -0.015468 -0.10778 6.73483e-09 0.994177 
-0.204706 -6.12456e-08 0.978817 -0.299659 -5.13222e-08 0.954032 -0.382683 0 0.92388 
-0.462716 1.9992e-08 0.886501 -0.556387 -3.70742e-09 0.830926 -0.634393 0 0.77301 
-0.707107 0 0.707107 -0.779873 1.90259e-08 0.625933 -0.837416 4.40458e-08 0.54656 
-0.886474 -3.55145e-07 0.462701 -0.92388 0 0.382683 -0.954026 -6.74631e-08 0.299656 
-0.978607 -7.76832e-08 0.205664 -0.994132 -2.6751e-07 0.107776 -0.994131 1.16209e-07 -0.107775 
-0.980785 0 -0.19509 -0.95694 0 -0.290285 -0.92388 0 -0.382683 
-0.881921 0 -0.471397 -0.83147 0 -0.55557 -0.77301 0 -0.634393 
-0.707107 0 -0.707107 -0.634393 0 -0.77301 -0.55557 0 -0.83147 
-0.462714 4.08315e-08 -0.886498 -0.372596 -9.52641e-10 -0.927991 -0.279933 -4.63771e-09 -0.960003 
-0.185451 -1.17643e-07 -0.982632 -0.0892209 2.03541e-08 -0.996 0.0980161 2.92274e-08 -0.995177 
0.194128 -2.48823e-08 -0.980975 0.271448 2.66725e-08 -0.962461 0.362727 3.71231e-08 -0.931858 
0.461759 2.28237e-08 -0.886998 0.55557 0 -0.83147 0.634393 0 -0.77301 
0.707107 0 -0.707107 0.77301 0 -0.634393 0.83147 0 -0.55557 
0.877244 -3.9581e-08 -0.480025 0.920122 3.59027e-07 -0.39175 0.951054 -2.35762e-08 -0.30901 
0.9786 -1.07563e-07 -0.205662 0.995185 0 -0.0980171 0.994141 -5.74835e-08 0.107776 
0.980785 0 0.19509 0.95694 0 0.290285 0.92388 0 0.382683 
0.881921 0 0.471397 0.83147 0 0.55557 0.77301 0 0.634393 
0.707107 0 0.707107 0.634393 0 0.77301 0.55557 0 0.83147 
0.471397 0 0.881921 0.382683 0 0.92388 0.290285 0 0.95694 
0.204712 3.10434e-08 0.978852 0.0970312 -7.57e-08 0.995279 0.472721 0.565421 0.000114295 
-0.473939 0.575391 0 -0.653517 0.361323 -0.0183526 0.649836 0.362774 0 
-0.0726058 0.738112 0.0145407 0.220268 0.704269 -0.0111446 -0.296573 0.715991 0 
-0.787662 0.184685 0.00319743 0.782584 0.174319 0.00284412 0.395968 0.732764 0 
0.0734317 0.817609 0.00261598 -0.649538 0.553596 0.0160366 0.628728 0.536591 -0.00648809 
-0.507258 0.422379 0.00219149 0.507273 0.420735 0.00330751 0.0501073 0.666645 0.00164908 
0.308729 0.577591 0 -0.616613 0.173869 0.0172237 0.613024 0.16736 0.0106314 
-0.180249 0.636866 0.0113861 -0.320087 0.563804 0 -0.179673 0.824216 -0.0148375 
-0.447411 0.72587 0 -0.78228 0.317443 0.00736754 0.794892 0.334389 0 
0.520861 0.704661 0.00651911 0.211313 0.850346 0 -0.0273406 0.869893 -0.0130136 
-0.59212 0.634239 0.012885 -0.747463 0.448235 0.0327088 0.748855 0.455617 0 
0.39153 0.477081 0 0.172419 0.593328 -0.00663617 0.297284 -0.121582 -0.346571 
0.543941 0.292101 0 -0.41019 0.436216 -0.0161326 -0.0249011 0.611085 -0.00592114 
0.875684 0.148417 -0.0256675 -0.874892 0.138361 -0.016441 -0.371239 0.81274 -0.00427047 
0.337887 0.815777 0.0171757 0.62048 0.623473 0.0025766 0.708029 0.117987 0 
-0.708029 0.117987 0 -0.189628 0.726801 0.00323825 -0.385592 0.643201 -0.0101199 
-0.714574 0.270688 -0.00127207 0.704874 0.272594 0.00623246 -0.880114 0.227404 0 
0.882214 0.225792 0.00783874 0.0250264 0.741812 0 0.544386 0.513039 0.00198551 
-0.542237 0.506844 0 0.379593 0.627814 -0.00599414 0.482169 0.78443 0.00125051 
0.127459 0.910827 0 -0.671362 0.639399 0.00136555 -0.548768 0.734078 0 
-0.130129 0.907098 0 -0.568705 0.0847048 0 0.568705 0.0847048 0 
0.315252 0.678673 -0.0205668 0.118109 0.726358 0.00427654 -0.593668 0.444874 0 
0.605651 0.444209 -0.0129319 -0.286933 0.868396 0 0.722483 0.529245 0.0251993 
-0.228808 0.553435 0.00385457 0.0404029 0.915692 0 -0.742781 0.533117 -0.0146264 
-0.262095 0.632754 0 0.778047 0.0841101 -0.0141557 -0.784919 0.0796847 0.0142609 
-0.461918 0.344689 -4.21291e-05 0.444631 0.376379 0.0124445 0.0743959 0.587689 -0.0106598 
0.266752 0.521192 0.00613596 -0.0974586 0.818203 0.015702 -0.516584 0.658952 0.0204711 
-0.871596 0.308469 0 0.871596 0.308469 0 0.821881 0.410897 0 
-0.822255 0.409781 0 -0.542653 0.198716 -0.00172989 0.533848 0.192161 0.00288129 
-0.484714 0.791146 -0.00526174 0.411769 0.826269 -0.00908725 0.540118 0.608055 0.0150512 
-0.395422 0.533123 -0.00645004 -0.101009 0.661943 0 0.69383 0.609379 0 
0.280516 0.757127 0 -0.105686 0.577542 0.00924753 -0.318134 0.484285 0 
-0.623197 0.267255 -0.0129673 0.622657 0.280741 0 -0.220271 0.906621 0 
-0.271796 0.786205 0.0086578 0.140889 0.653204 -0.0192618 0.240079 0.622767 0.0109334 
-0.731241 0.379573 0 0.73173 0.370161 0.00766748 -0.567862 0.352106 -0.0162257 
0.566224 0.366348 0 0.380461 0.544395 -0.0145037 0.468642 0.483056 0 
-0.446506 0.484959 0.0252296 -0.014625 0.688696 -0.0143693 -0.372693 0.727902 0 
0.456382 0.646071 -0.00103608 -0.0289718 0.803531 -0.0213314 -0.549069 0.582274 0 
0.278633 0.882975 0 0.602637 0.71038 0.0151195 0.180495 0.773341 0 
-0.64118 0.0692284 -0.00525712 0.640516 0.0705387 -0.00800409 -0.672962 0.461916 0.011408 
0.669485 0.447907 0.0276251 0.791644 0.251271 0.0113464 -0.80624 0.249674 0.0109173 
0.932988 0.0802104 0 -0.941058 0.0803488 -0.0110604 -0.705153 0.189037 0 
0.695446 0.19168 0.0114079 -0.63542 0.701078 0 -0.0537537 0.938422 -0.0114692 
0.803004 0.501911 -0.0239186 -0.812596 0.487052 0 -0.492274 0.263556 3.7269e-05 
0.481566 0.280654 0.0211869 0.357284 0.423538 0.0015574 0.16534 0.525105 -0.00542199 
0.861267 0.065591 0.00450714 -0.865116 0.0619308 0.0053054 -0.144655 0.810635 0.480765 
-0.218542 0.261437 0.0566834 0.29168 0.190059 0.055307 -0.329249 0.152292 0.0516699 
-0.386266 0.101407 0.0406944 0.371654 0.119344 0.0434731 0.215238 0.179247 0.0730033 
-0.249504 0.16566 0.0687264 -0.288536 0.322417 0.0275112 0.261678 0.0955528 0.0765231 
0.501574 0.0939773 0.58477 -0.277714 0.0778525 0.0748377 -0.315461 0.232225 0.041348 
0.0476796 0.184061 0.0898979 0.0196847 0.309654 0.0647778 0.130407 0.257859 0.0697818 
-0.0822348 0.0842708 0.104166 -0.109062 0.35836 0.0481525 -0.143097 0.179173 0.0835074 
-0.165674 0.521734 -0.0148963 0.234039 0.272706 0.0514196 0.0950869 0.0864136 0.102779 
-0.177645 0.0836026 0.0938232 0.182277 0.0874411 0.0925133 0.0111786 0.0853121 0.106774 
-0.0531554 0.238323 0.0794254 -0.845481 -0.226609 -0.334446 -0.134422 0.408517 0.233606 
-0.191048 0.37106 0.0338946 -0.0161302 0.341035 -0.880048 0.0137143 0.213611 0.22185 
-0.0238112 0.40897 0.0373804 -0.135409 0.293488 0.061401 0.323458 0.27806 0.0295045 
-0.125622 0.415069 0.029574 -0.0445699 0.154652 0.0953569 0.364422 0.219654 0.0300721 
0.128395 0.159859 0.0884019 0.0969751 0.391158 0.0391599 -0.0579385 0.323009 0.0604077 
0.19801 0.358323 0.0362672 -0.279046 0.662142 0.695486 0.269965 0.757779 0.594045 
0.133396 0.978795 0.155044 0.523903 0.646787 0.554256 0.540301 0.760942 0.359225 
-0.555903 0.754966 0.347849 -0.675524 0.4011 0.618697 -0.7622 0.557593 0.328677 
0.800967 0.529513 0.279407 0.842581 0.267187 0.46762 -0.865134 0.185884 0.465726 
0.966871 0.207737 0.148343 0.982842 0.0999168 0.15465 0.220493 0.219765 0.950293 
-0.490485 0.41955 0.763721 0.584353 0.430105 0.688143 0.338886 0.3785 0.861333 
0.354767 0.122534 0.926871 -0.28725 0.223324 0.931458 -0.168183 0.362914 0.916417 
0.609408 0.744552 0.272004 -0.706034 0.616143 0.349118 0.700267 0.640358 0.315542 
0.777832 0.311207 0.545956 -0.776694 0.290478 0.558899 0.842609 0.495958 0.209768 
[...]
CELL_DATA 47185
FIELD FieldData 1
medit:ref 1 47185 int
0 0 0 0 0 0 0 0 0 
0 0 0 0 0 0 0 0 0 
0 0 0 0 0 0 0 0 0 
0 0 0 0 0 0 0 0 0 
0 0 0 0 0 0 0 0 0 
0 0 0 0 0 0 0 0 0 
0 0 0 0 0 0 0 0 0 
0 0 0 0 0 0 0 0 0 
0 0 0 0 0 0 0 0 0 
0 0 0 0 0 0 0 0 0 
0 0 0 0 0 0 0 0 0 
0 0 0 0 0 0 0 0 0 
0 0 0 0 0 0 0 0 0 
0 0 0 0 0 0 0 0 0 
0 0 38 35 38 38 41 38 38 
41 38 46 46 38 38 46 46 38 
38 38 46 46 47 46 46 46 46 
47 47 46 47 47 35 38 47 47 
47 47 47 38 41 47 38 47 47 
47 46 35 46 35 46 46 47 47 
47 46 38 38 47 38 38 46 41 
41 47 38 38 46 38 47 38 46 
38 38 46 38 46 46 46 38 47 
38 47 38 41 46 47 38 46 47 
38 47 35 38 46 38 38 38 38 
35 46 47 47 41 46 38 38 38 
35 46 38 46 35 38 46 38 38 
38 38 41 35 38 47 38 46 38 
46 35 46 47 41 47 38 46 38 
38 38 38 38 38 38 47 38 41 
46 47 38 38 47 46 38 47 38 
38 38 38 38 38 38 38 41 47 
41 38 38 35 38 38 38 47 38 
35 46 47 38 38 38 38 38 47 
47 46 47 38 38 47 38 38 38 
47 38 38 35 47 46 38 38 46 
38 38 38 38 38 47 38 38 46 
38 38 38 35 47 38 46 46 47 
35 41 47 38 41 38 38 38 38 
35 38 41 38 38 47 47 38 47 
38 38 38 47 47 38 38 38 41 
38 41 38 46 46 47 38 38 41 
47 38 38 46 35 47 38 38 38 
38 38 46 46 38 38 47 41 38 
38 38 38 38 38 46 47 47 38 
38 47 38 47 41 47 38 38 47 
38 38 46 38 38 35 41 46 38 
35 47 47 38 38 38 47 38 41 
38 35 41 47 46 38 46 46 35 
35 38 47 38 47 38 35 38 38 
38 46 38 47 35 38 47 41 38 
38 47 38 38 46 38 38 47 47 
38 46 38 38 38 46 38 38 38 
46 38 38 35 46 38 38 38 38 
47 38 46 46 46 38 35 38 38 
38 38 38 38 38 35 38 38 38 
38 47 38 41 35 46 38 47 38 
38 47 41 38 38 38 38 38 38 
38 38 38 38 38 41 38 47 38 
38 38 35 38 41 35 38 47 38 
38 38 38 38 38 38 38 38 38 
38 47 38 38 38 38 38 38 35 
35 38 47 38 38 38 38 38 41 
38 41 38 38 38 46 38 38 38 
38 38 38 38 38 38 38 38 38 
38 38 41 38 38 38 38 38 38 
38 38 38 47 38 38 38 38 38 
41 38 38 35 41 38 47 38 38 
38 38 35 38 38 38 38 38 38 
41 46 41 41 46 46 46 46 41 
46 38 41 46 47 41 47 46 38 
46 41 41 41 41 47 41 46 46 
46 41 47 41 47 46 41 41 41 
47 41 47 47 41 41 41 41 41 
41 46 38 41 47 41 46 41 41 
41 46 47 41 46 41 41 46 41 
41 41 46 38 41 41 41 46 41 
38 41 38 46 41 41 41 46 46 
41 41 46 47 47 41 46 47 38 
46 46 47 41 46 47 46 47 41 
41 38 47 47 41 41 41 41 41 
46 46 41 46 38 41 46 47 46 
41 47 41 41 41 41 41 41 46 
47 41 41 46 46 47 46 41 41 
41 41 46 41 41 46 41 41 41 
41 46 46 38 41 46 46 41 47 
41 41 46 41 41 41 47 41 41 
41 41 47 46 46 41 47 47 41 
41 46 41 46 41 47 38 47 41 
47 47 41 41 41 47 47 47 41 
41 46 46 46 38 46 41 41 46 
41 41 41 46 41 38 41 41 47 
41 47 41 47 47 41 41 41 47 
41 41 38 38 41 41 38 46 46 
46 46 46 41 41 41 41 47 47 
47 47 47 41 41 41 46 41 38 
41 38 41 46 41 47 46 41 46 
47 41 46 41 41 46 46 38 46 
41 46 41 41 46 47 41 41 46 
41 46 38 41 41 47 41 41 46 
46 47 46 46 46 41 47 46 47 
46 41 41 41 46 41 41 46 41 
41 38 47 46 41 41 47 41 47 
41 47 41 47 46 41 46 41 46 
47 47 38 41 47 47 41 47 38 
41 46 38 46 41 47 41 38 38 
46 46 47 46 41 47 41 41 46 
38 46 41 41 46 41 47 41 41 
41 41 41 46 47 47 47 47 38 
41 41 41 46 35 41 41 47 38 
47 41 47 46 41 41 41 38 47 
46 47 47 47 47 38 47 41 47 
46 41 41 47 41 46 41 38 41 
41 41 41 41 35 46 41 41 41 
41 41 47 41 47 41 41 41 41 
46 41 46 35 41 41 41 47 46 
41 35 38 47 41 47 41 41 41 
41 41 41 41 41 41 41 41 41 
41 41 41 41 46 41 41 41 41 
41 41 41 41 41 41 41 41 47 
41 41 41 41 41 41 41 41 41 
41 41 41 41 41 41 41 41 41 
41 41 41 41 41 41 41 41 47 
41 46 46 46 47 46 46 47 46 
46 46 47 47 46 47 38 41 41 
47 47 41 46 41 47 46 41 47 
38 46 47 46 38 47 47 46 41 
47 46 41 46 47 41 41 46 47 
47 47 38 41 38 47 38 47 41 
46 47 47 41 46 46 41 47 41 
38 46 38 47 46 46 47 46 47 
46 41 47 46 46 46 46 38 47 
38 46 38 47 47 41 47 47 46 
46 46 46 41 47 47 41 47 47 
41 47 47 38 41 41 46 46 41 
47 47 46 46 46 47 41 41 41 
41 38 47 47 47 46 46 46 46 
41 41 46 46 47 41 38 47 46 
38 38 47 46 47 41 38 41 41 
47 46 46 41 41 47 47 41 46 
46 46 46 41 46 41 46 41 41 
38 47 47 46 47 46 46 41 38 
38 47 47 41 47 46 46 47 46 
41 47 47 41 41 47 46 46 46 
38 47 41 41 41 46 46 46 47 
38 46 46 46 38 41 46 41 46 
41 46 46 47 38 47 46 38 47 
38 47 41 41 47 41 41 46 38 
41 38 41 47 46 41 47 38 47 
46 47 46 47 38 41 46 46 38 
41 41 38 47 35 46 47 38 41 
41 47 38 46 41 38 46 46 46 
38 41 38 47 47 46 46 46 46 
38 47 38 47 46 46 47 46 47 
41 41 38 46 41 46 47 46 47 
46 46 46 38 46 41 47 41 41 
46 47 46 38 38 41 38 41 46 
47 46 47 47 38 46 41 38 41 
41 46 47 46 46 46 47 47 46 
47 46 47 46 47 46 46 46 41 
38 47 46 47 46 47 38 41 41 
41 38 41 47 47 46 47 47 46 
41 47 41 47 46 46 46 47 47 
47 47 47 47 46 38 46 46 46 
38 47 41 47 41 46 46 46 47 
46 46 46 41 46 47 46 38 47 
35 47 38 47 38 41 46 41 46 
46 41 46 41 46 38 46 41 47 
47 46 46 35 47 46 38 47 46 
47 47 46 41 46 46 47 46 38 
47 47 46 38 46 46 47 47 47 
47 38 46 46 47 46 41 46 46 
46 38 47 47 46 46 47 38 41 
47 46 41 47 47 46 38 47 35 
47 47 46 46 47 46 47 46 41 
41 41 41 46 41 46 38 46 47 
46 38 47 46 47 46 46 46 47 
41 47 41 46 41 46 46 47 46 
41 38 46 46 41 46 41 41 41 
46 41 47 46 46 41 46 38 38 
38 38 47 38 47 46 47 38 38 
38 38 38 47 41 38 47 35 35 
35 38 46 47 46 38 47 38 38 
38 38 38 47 47 38 38 38 47 
38 38 38 38 38 38 38 46 41 
38 46 38 38 38 38 46 38 38 
38 38 41 47 38 38 38 41 38 
46 38 38 38 38 38 35 47 47 
47 41 38 38 38 38 47 46 38 
38 46 38 38 38 38 38 35 41 
46 38 41 35 38 38 47 46 35 
38 41 38 35 47 38 38 38 38 
38 38 38 38 38 41 38 46 38 
38 38 38 38 38 46 38 46 38 
38 38 46 41 38 38 38 46 38 
38 41 38 46 46 38 46 41 38 
38 41 41 38 38 38 46 35 47 
46 46 41 38 38 47 38 38 41 
38 41 38 35 35 35 38 38 38 
38 47 38 38 38 38 35 38 46 
46 38 35 38 38 38 38 38 38 
38 46 47 35 46 35 47 38 35 
38 47 47 46 35 35 38 46 38 
41 41 46 46 38 38 38 38 38 
35 35 38 38 46 38 38 41 38 
38 38 38 38 47 41 38 38 38 
35 47 38 47 47 38 47 47 46 
38 46 38 38 38 35 38 38 47 
38 38 38 38 38 35 38 46 38 
38 41 38 38 46 38 47 47 47 
47 38 35 47 38 38 38 38 47 
46 41 46 38 38 47 47 41 38 
38 38 47 46 47 35 46 47 38 
41 38 41 38 41 38 41 38 47 
38 38 35 38 46 46 46 38 46 
38 38 38 38 41 46 47 47 41 
41 47 38 38 38 46 47 38 38 
38 38 47 46 38 38 38 38 38 
38 38 41 38 38 46 38 35 41 
35 38 38 38 38 38 38 38 38 
47 38 38 38 38 47 41 38 38 
38 38 41 38 35 46 38 35 38 
41 47 38 38 41 47 38 41 38 
46 46 47 38 35 47 46 38 47 
38 38 46 38 38 38 38 38 38 
46 38 41 38 47 38 38 38 38 
47 46 47 41 46 35 47 38 46 
41 38 41 41 38 38 38 46 46 
38 46 38 38 35 46 41 41 41 
41 38 47 47 38 38 46 41 38 
38 47 38 38 38 38 46 41 46 
46 38 38 38 47 46 38 47 38 
38 41 38 47 41 47 38 38 38 
38 47 38 41 47 46 38 46 35 
38 47 47 47 41 41 38 46 41 
47 38 41 41 46 38 41 46 41 
41 47 35 46 46 46 38 46 46 
38 46 38 47 46 38 38 38 46 
47 38 46 38 35 38 47 38 46 
46 47 38 46 38 38 38 38 46 
41 38 38 41 47 47 38 41 38 
38 38 47 38 38 35 47 41 46 
41 41 38 38 46 41 38 41 38 
38 41 38 47 41 41 46 38 41 
35 38 38 38 38 47 47 41 46 
38 46 46 46 46 47 46 47 41 
41 41 38 41 47 41 38 47 41 
47 46 38 38 41 41 47 47 46 
41 47 41 41 41 41 47 47 41 
41 47 41 41 46 47 41 46 47 
41 41 47 46 41 41 47 46 47 
47 41 41 41 47 41 41 41 41 
47 46 41 46 41 41 41 38 41 
41 41 46 47 41 46 41 41 46 
41 47 46 41 47 41 41 47 47 
41 41 47 41 46 38 41 41 46 
41 41 41 46 38 38 35 41 41 
41 47 47 41 41 41 46 41 46 
47 47 41 41 41 41 41 47 41 
41 47 41 41 41 46 41 46 47 
47 41 47 41 47 41 38 46 41 
41 41 47 46 47 41 38 47 46 
47 41 46 47 41 38 41 47 47 
46 46 41 41 41 47 46 46 41 
47 46 47 47 41 41 41 41 46 
47 41 46 47 41 47 41 41 47 
47 38 41 47 47 38 41 41 41 
47 41 47 47 47 47 47 47 41 
41 41 41 41 41 46 41 47 35 
47 47 47 46 41 47 47 41 47 
47 41 41 47 38 41 46 41 41 
46 41 46 47 41 41 47 47 41 
46 46 41 46 41 46 46 47 41 
46 41 47 41 47 41 47 46 38 
46 46 46 41 38 46 47 46 41 
41 41 41 41 47 41 47 41 46 
41 41 38 41 46 41 46 47 47 
41 41 47 46 47 41 47 47 46 
47 41 47 46 38 41 38 41 47 
46 46 47 41 46 46 46 47 35 
46 38 46 47 47 47 47 46 41 
46 41 47 41 46 46 41 41 46 
41 41 46 46 38 47 47 41 47 
47 41 38 41 46 47 46 41 47 
47 41 41 47 47 46 46 41 41 
41 41 41 46 41 41 41 47 41 
47 46 41 47 38 46 46 47 38 
46 46 38 47 47 47 38 46 46 
41 41 47 47 41 41 46 46 46 
46 47 41 47 46 41 41 41 46 
41 41 41 41 47 47 41 41 47 
41 41 41 41 41 41 46 46 47 
47 41 41 47 47 46 41 41 47 
47 46 46 47 46 47 47 41 47 
46 41 46 46 47 47 46 46 47 
47 41 46 46 46 46 41 41 46 
38 47 47 41 41 41 41 41 41 
46 47 41 35 47 47 41 46 41 
46 38 38 47 46 47 41 41 46 
41 46 46 46 47 41 41 46 46 
47 41 46 47 38 47 47 47 41 
35 46 47 46 47 47 46 41 41 
41 41 47 41 46 41 47 41 41 
41 47 47 46 41 47 46 47 47 
47 35 47 46 38 47 41 41 41 
41 47 47 41 41 41 47 47 47 
46 47 47 35 46 47 41 41 41 
41 47 46 47 41 47 38 38 47 
46 47 41 41 41 46 46 41 47 
47 47 47 47 47 41 41 47 47 
46 46 47 47 38 38 46 46 46 
46 47 47 47 38 46 47 46 47 
46 47 46 46 46 47 47 35 47 
38 47 47 47 47 47 46 46 47 
46 46 46 35 35 41 47 46 47 
46 47 47 47 46 46 46 47 46 
41 35 41 41 47 35 47 46 38 
47 38 47 46 46 47 46 46 47 
47 46 46 35 41 41 47 46 38 
46 46 46 46 46 46 41 47 46 
47 47 41 46 46 46 47 41 46 
46 47 46 46 46 46 47 38 47 
46 46 41 47 47 46 46 46 47 
46 46 47 47 46 38 47 47 47 
47 35 46 47 46 46 46 46 38 
46 47 46 46 47 47 47 46 38 
46 46 41 46 41 46 38 47 47 
46 46 46 47 35 46 47 41 46 
46 47 47 47 41 35 38 46 46 
38 47 38 47 41 47 41 47 47 
38 46 41 47 38 47 47 47 46 
46 38 46 47 46 38 46 46 41 
47 46 46 46 47 47 47 47 46 
47 46 47 46 46 47 38 46 46 
47 41 47 47 47 47 47 46 47 
46 46 46 47 46 47 47 47 47 
46 47 46 47 41 47 47 41 46 
47 46 46 41 41 47 38 47 46 
46 47 46 47 41 38 38 46 47 
46 47 47 46 46 38 47 47 46 
46 41 47 46 46 47 35 46 47 
47 47 46 38 46 46 38 38 47 
47 47 46 46 46 46 46 38 47 
41 46 38 46 46 41 47 41 38 
46 47 47 46 47 47 47 47 41 
47 47 46 46 47 38 47 46 47 
35 47 47 47 47 47 46 41 46 
47 47 46 38 47 47 47 47 35 
46 47 47 47 41 47 46 46 41 
46 46 47 46 46 46 46 46 46 
47 47 46 47 35 47 47 47 46 
47 46 46 46 46 46 41 41 47 
46 38 47 47 38 41 38 46 47 
47 35 35 38 47 47 46 47 46 
46 46 41 46 38 47 47 46 46 
46 46 46 47 38 41 47 38 47 
38 46 46 46 41 46 47 47 47 
38 46 35 46 47 35 46 46 46 
46 47 46 46 41 46 47 41 47 
46 46 47 47 46 46 46 46 47 
46 46 47 46 41 64 64 64 64 
64 64 64 64 64 64 64 64 64 
64 64 64 64 64 64 64 64 64 
64 64 64 64 64 64 64 64 64 
64 64 64 64 64 64 64 64 64 
64 64 64 64 64 64 64 64 64 
64 64 64 64 64 64 64 64 64 
64 64 64 64 64 64 64 64 64 
64 64 64 64 64 64 64 64 64 
64 64 64 64 64 64 64 64 64 
64 64 64 64 64 64 64 64 64 
64 64 64 64 64 64 64 64 64 
64 64 64 64 64 64 64 64 64 
64 64 64 64 64 64 64 64 64 
64 64 64 64 64 64 64 64 64 
64 64 64 64 64 64 64 64 64 
64 64 64 64 64 64 64 64 64 
64 64 64 64 64 64 64 64 64 
64 64 64 64 64 64 64 64 64 
64 64 64 64 64 64 64 64 64 
64 64 64 64 64 64 64 64 64 
64 64 64 64 64 64 64 64 64 
64 64 64 64 64 64 64 64 64 
64 64 64 64 64 64 64 64 64 
64 64 64 64 64 64 64 64 64 
64 64 64 64 64 64 64 64 64 
64 64 64 64 64 64 64 64 64 
64 64 64 64 64 64 64 64 64 
64 64 64 64 64 64 64 64 64 
64 64 64 64 64 64 64 64 64 
64 64 64 64 64 64 64 64 64 
64 64 64 64 64 64 64 64 64 
64 64 64 64 64 64 64 64 64 
64 64 64 64 64 64 64 64 64 
64 64 64 64 64 64 64 64 64 
64 64 64 64 64 64 64 64 64 
64 64 64 64 64 64 64 64 64 
64 64 64 64 64 64 64 64 64 
64 64 64 64 64 64 64 64 64 
64 64 64 64 64 64 64 64 64 
64 64 64 64 64 64 64 64 64 
64 64 64 64 64 64 64 64 64 
64 64 64 64 64 64 64 64 64 
64 64 64 64 64 64 64 64 64 
64 64 64 64 64 64 64 64 64 
64 64 64 64 64 64 64 64 64 
64 64 64 64 64 64 64 64 64 
64 64 64 64 64 64 64 64 64 
64 64 64 64 64 64 64 64 64 
64 64 64 64 64 64 64 64 64 
64 64 64 64 64 64 64 64 64 
64 64 64 64 64 64 64 64 64 
64 64 64 64 64 64 64 64 64 
64 64 64 64 64 64 64 64 64 
64 64 64 64 64 64 64 64 64 
64 64 64 64 64 64 64 64 64 
64 64 64 64 64 64 64 64 64 
64 64 64 64 64 64 64 64 64 
64 64 64 64 64 64 64 64 64 
64 64 64 64 64 64 64 64 64 
64 64 64 64 64 64 64 64 64 
64 64 64 64 64 64 64 64 64 
64 64 64 64 64 64 64 64 64 
64 64 64 64 64 64 64 64 64 
64 64 64 64 64 64 64 64 64 
64 64 64 64 64 64 64 64 64 
64 64 64 64 64 64 64 64 64 
64 64 64 64 64 64 64 64 64 
64 64 64 64 64 64 64 64 64 
64 64 64 64 64 64 64 64 64 
64 64 64 64 64 64 64 64 64 
64 64 64 64 64 64 64 64 64 
64 64 64 64 64 64 64 64 64 
64 64 64 64 64 64 64 64 64 
64 64 64 64 64 64 64 64 64 
64 64 64 64 64 64 64 64 64 
64 64 64 64 64 64 64 64 64 
64 64 64 64 64 64 64 64 64 
64 64 64 64 64 64 64 64 64 
64 64 64 64 64 64 64 64 64 
64 64 64 64 64 64 64 64 64 
64 64 64 64 64 64 64 64 64 
64 64 64 64 64 64 64 64 64 
64 64 64 64 64 64 64 64 64 
64 64 64 64 64 64 64 64 64 
64 64 64 64 64 64 64 64 64 
64 64 64 64 64 64 64 64 64 
64 64 64 64 64 64 64 64 64 
64 64 64 64 64 64 64 64 64 
64 64 64 64 64 64 64 64 64 
64 64 64 64 64 64 64 64 64 
64 64 64 64 64 64 64 64 64 
64 64 64 64 64 64 64 64 64 
64 64 64 64 64 64 64 64 64 
64 64 64 64 64 64 64 64 64 
64 64 64 64 64 64 64 64 64 
64 64 64 64 64 64 64 64 64 
64 64 64 64 64 64 64 64 64 
64 64 64 64 64 64 64 64 64 
64 64 64 64 64 64 64 64 64 
64 64 64 64 64 64 64 64 64 
64 64 64 64 64 64 64 64 64 
64 64 64 64 64 64 64 64 64 
64 64 64 64 64 64 64 64 64 
64 64 64 64 64 64 64 64 64 
64 64 64 64 64 64 64 64 64 
64 64 64 64 64 64 64 64 64 
64 64 64 64 64 64 64 64 64 
64 64 64 64 64 64 64 64 64 
64 64 64 64 64 64 64 64 64 
64 64 64 64 64 64 64 64 64 
64 64 64 64 64 64 64 64 64 
64 64 64 64 64 64 64 64 64 
64 64 64 64 64 64 64 64 64 
64 64 64 64 64 64 64 64 64 
64 64 64 64 64 64 64 64 64 
64 64 64 64 64 64 64 64 64 
64 64 64 64 64 64 64 64 64 
64 64 64 64 64 64 64 64 64 
64 64 64 64 64 64 64 64 64 
64 64 64 64 64 64 64 64 64 
64 64 64 64 64 64 64 64 64 
64 64 64 64 64 64 64 64 64 
64 64 64 64 64 64 64 64 64 
64 64 64 64 64 64 64 64 64 
64 64 64 64 64 64 64 64 64 
64 64 64 64 64 64 64 64 64 
64 64 64 64 64 64 64 64 64 
64 64 64 64 64 64 64 64 64 
64 64 64 64 64 64 64 64 64 
64 64 64 64 64 64 64 64 64 
64 64 64 64 64 64 64 64 64 
64 64 64 64 64 64 64 64 64 
64 64 64 64 64 64 64 64 64 
64 64 64 64 64 64 64 64 64 
64 64 64 64 64 64 64 64 64 
64 64 64 64 64 64 64 64 64 
64 64 64 64 64 64 64 64 64 
64 64 64 64 64 64 64 64 64 
64 64 64 64 64 64 64 64 64 
64 64 64 64 64 64 64 64 64 
64 64 64 64 64 64 64 64 64 
64 64 64 64 64 64 64 64 64 
64 64 64 64 64 64 64 64 64 
64 64 64 64 64 64 64 64 64 
64 64 64 64 64 64 64 64 64 
64 64 64 64 64 64 64 64 64 
64 64 64 64 64 64 64 64 64 
64 64 64 64 64 64 64 64 64 
64 64 64 64 64 64 64 64 64 
64 64 64 64 64 64 64 64 64 
64 64 64 64 64 64 64 64 64 
64 64 64 64 64 64 64 64 64 
64 64 64 64 64 64 64 64 64 
64 64 64 64 64 64 64 64 64 
64 64 64 64 64 64 64 64 64 
64 64 64 64 64 64 64 64 64 
64 64 64 64 64 64 64 64 64 
64 64 64 64 64 64 64 64 64 
64 64 64 64 64 64 64 64 64 
64 64 64 64 64 64 64 64 64 
64 64 64 64 64 64 64 64 64 
64 64 64 64 64 64 64 64 64 
64 64 64 64 64 64 64 64 64 
64 64 64 64 64 64 64 64 64 
64 64 64 64 64 64 64 64 64 
64 64 64 64 64 64 64 64 64 
64 64 64 64 64 64 64 64 64 
64 64 64 64 64 64 64 64 64 
64 64 64 64 64 64 64 64 64 
64 64 64 64 64 64 64 64 64 
64 64 64 64 64 64 64 64 64 
64 64 64 64 64 64 64 64 64 
64 64 64 64 64 64 64 64 64 
64 64 64 64 64 64 64 64 64 
64 64 64 64 64 64 64 64 64 
64 64 64 64 64 64 64 64 64 
64 64 64 64 64 64 64 64 64 
64 64 64 64 64 64 64 64 64 
64 64 64 64 64 64 64 64 64 
64 64 64 64 64 64 64 64 64 
64 64 64 64 64 64 64 64 64 
64 64 64 64 64 64 64 64 64 
64 64 64 64 64 64 64 64 64 
64 64 64 64 64 64 64 64 64 
64 64 64 64 64 64 64 64 64 
64 64 64 64 64 64 64 64 64 
64 64 64 64 64 64 64 64 64 
64 64 64 64 64 64 64 64 64 
64 64 64 64 64 64 64 64 64 
64 64 64 64 64 64 64 64 64 
64 64 64 64 64 64 64 64 64 
64 64 64 64 64 64 64 64 64 
64 64 64 64 64 64 64 64 64 
64 64 64 64 64 64 64 64 64 
64 64 64 64 64 64 64 64 64 
64 64 64 64 64 64 64 64 64 
64 64 64 64 64 64 64 64 64 
64 64 64 64 64 64 64 64 64 
64 64 64 64 64 64 64 64 64 
64 64 64 64 64 64 64 64 64 
64 64 64 64 64 64 64 64 64 
64 64 64 64 64 64 64 64 64 
64 64 64 64 64 64 64 64 64 
64 64 64 64 64 64 64 64 64 
64 64 64 64 64 64 64 64 64 
64 64 64 64 64 64 64 64 64 
64 64 64 64 64 64 64 64 64 
64 64 64 64 64 64 64 64 64 
64 64 64 64 64 64 64 64 64 
64 64 64 64 64 64 64 64 64 
64 64 64 64 64 64 64 64 64 
64 64 64 64 64 64 64 64 64 
64 64 64 64 64 64 64 64 64 
64 64 64 64 64 64 64 64 64 
64 64 64 64 64 64 64 64 64 
64 64 64 64 64 64 64 64 64 
64 64 64 64 64 64 64 64 64 
64 64 64 64 64 64 64 64 64 
64 64 64 64 64 64 64 64 64 
64 64 64 64 64 64 64 64 64 
64 64 64 64 64 64 64 64 64 
64 64 64 64 64 64 64 64 64 
64 64 64 64 64 64 64 64 64 
64 64 64 64 64 64 64 64 64 
64 64 64 64 64 64 64 64 64 
64 64 64 64 64 64 64 64 64 
64 64 64 64 64 64 64 64 64 
64 64 64 64 64 64 64 64 64 
64 64 64 64 64 64 64 64 64 
64 64 64 64 64 64 64 64 64 
64 64 64 64 64 64 64 64 64 
64 64 64 64 64 64 64 64 64 
64 64 64 64 64 64 64 64 64 
64 64 64 64 64 64 64 64 64 
64 64 64 64 64 64 64 64 64 
64 64 64 64 64 64 64 64 64 
64 64 64 64 64 64 64 64 64 
64 64 64 64 64 64 64 64 64 
64 64 64 64 64 64 64 64 64 
64 64 64 64 64 64 64 64 64 
64 64 64 64 64 64 64 64 64 
64 64 64 64 64 64 64 64 64 
64 64 64 64 64 64 64 64 64 
64 64 64 64 64 64 64 64 64 
64 64 64 64 64 64 64 64 64 
64 64 64 64 64 64 64 64 64 
64 64 64 64 64 64 64 64 64 
64 64 64 64 64 64 64 64 64 
64 64 64 64 64 64 64 64 64 
64 64 64 64 64 64 64 64 64 
64 64 64 64 64 64 64 64 64 
64 64 64 64 64 64 64 64 64 
64 64 64 64 64 64 64 64 64 
64 64 64 64 64 64 64 64 64 
64 64 64 64 64 64 64 64 64 
64 64 64 64 64 64 64 64 64 
64 64 64 64 64 64 64 64 64 
64 64 64 64 64 64 64 64 64 
64 64 64 64 64 64 64 64 64 
64 64 64 64 64 64 64 64 64 
64 64 64 64 64 64 64 64 64 
64 64 64 64 64 64 64 64 64 
64 64 64 64 64 64 64 64 64 
64 64 64 64 64 64 64 64 64 
64 64 64 64 64 64 64 64 64 
64 64 64 64 64 64 64 64 64 
64 64 64 64 64 64 64 64 64 
64 64 64 64 64 64 64 64 64 
64 64 64 64 64 64 64 64 64 
64 64 64 64 64 64 64 64 64 
64 64 64 64 64 64 64 64 64 
64 64 64 64 64 64 64 64 64 
64 64 64 64 64 64 64 64 64 
64 64 64 64 64 64 64 64 64 
64 64 64 64 64 64 64 64 64 
64 64 64 64 64 64 64 64 64 
64 64 64 64 64 64 64 64 64 
64 64 64 64 64 64 64 64 64 
64 64 64 64 64 64 64 64 64 
64 64 64 64 64 64 64 64 64 
64 64 64 64 64 64 64 64 64 
64 64 64 64 64 64 64 64 64 
64 64 64 64 64 64 64 64 64 
64 64 64 64 64 64 64 64 64 
64 64 64 64 64 64 64 64 64 
64 64 64 64 64 64 64 64 64 
64 64 64 64 64 64 64 64 64 
64 64 64 64 64 64 64 64 64 
64 64 64 64 64 64 64 64 64 
64 64 64 64 64 64 64 64 64 
64 64 64 64 64 64 64 64 64 
64 64 64 64 64 64 64 64 64 
64 64 64 64 64 64 64 64 64 
64 64 64 64 64 64 64 64 64 
64 64 64 64 64 64 64 64 64 
64 64 64 64 64 64 64 64 64 
64 64 64 64 64 64 64 64 64 
64 64 64 64 64 64 64 64 64 
64 64 64 64 64 64 64 64 64 
64 64 64 64 64 64 64 64 64 
64 64 64 64 64 64 64 64 64 
64 64 64 64 64 64 64 64 64 
64 64 64 64 64 64 64 64 64 
64 64 64 64 64 64 64 64 64 
64 64 64 64 64 64 64 64 64 
64 64 64 64 64 64 64 64 64 
64 64 64 64 64 64 64 64 64 
64 64 64 64 64 64 64 64 64 
64 64 64 64 64 64 64 64 64 
64 64 64 64 64 64 64 64 64 
64 64 64 64 64 64 64 64 64 
64 64 64 64 64 64 64 64 64 
64 64 64 64 64 64 64 64 64 
64 64 64 64 64 64 64 64 64 
64 64 64 64 64 64 64 64 64 
64 64 64 64 64 64 64 64 64 
64 64 64 64 64 64 64 64 64 
64 64 64 64 64 64 64 64 64 
64 64 64 64 64 64 64 64 64 
64 64 64 64 64 64 64 64 64 
64 64 64 64 64 64 64 64 64 
64 64 64 64 64 64 64 64 64 
64 64 64 64 64 64 64 64 64 
64 64 64 64 64 64 64 64 64 
64 64 64 64 64 64 64 64 64 
64 64 64 64 64 64 64 64 64 
64 64 64 64 64 64 64 64 64 
64 64 64 64 64 64 64 64 64 
64 64 64 64 64 64 64 64 64 
64 64 64 64 64 64 64 64 64 
64 64 64 64 64 64 64 64 64 
64 64 64 64 64 64 64 64 64 
64 64 64 64 64 64 64 64 64 
64 64 64 64 64 64 64 64 64 
64 64 64 64 64 64 64 64 64 
64 64 64 64 64 64 64 64 64 
64 64 64 64 64 64 64 64 64 
64 64 64 64 64 64 64 64 64 
64 64 64 64 64 64 64 64 64 
64 64 64 64 64 64 64 64 64 
64 64 64 64 64 64 64 64 64 
64 64 64 64 64 64 64 64 64 
64 64 64 64 64 64 64 64 64 
64 64 64 64 64 64 64 64 64 
64 64 64 64 64 64 64 64 64 
64 64 64 64 64 64 64 64 64 
64 64 64 64 64 64 64 64 64 
64 64 64 64 64 64 64 64 64 
64 64 64 64 64 64 64 64 64 
64 64 64 64 64 64 64 64 64 
64 64 64 64 64 64 64 64 64 
64 64 64 64 64 64 64 64 64 
64 64 64 64 64 64 64 64 64 
64 64 64 64 64 64 64 64 64 
64 64 64 64 64 64 64 64 64 