# vtk DataFile Version 5.1
vtk output
ASCII
DATASET UNSTRUCTURED_GRID
POINTS 706 float
294.696 -121.5 0 302.496 -44.3 0 248.097 -49.3 0 
106.5 -164.7 0 147.9 -47.1 0 491.096 -144.3 0 
80.9 -190.3 0 109.1 -8.3 0 349.695 -167.498 0 
500.096 -190.3 0 119.7 -63.9 0 66.9 -153.3 0 
95.1 -100.5 0 349.495 -30.9 0 542.894 -49.3 0 
371.894 -190.298 0 196.297 -39.3 0 95.1 -39.3 0 
371.894 -8.5 0 226.697 -70.3 0 168.097 -153.3 0 
119.7 -100.5 0 334.296 -44.3 0 409.695 -190.298 0 
316.296 -93.1 0 442.695 -156.9 0 521.496 -70.3 0 
205.297 -190.3 0 203.697 -151.5 0 66.9 -50.1 0 
502.096 -8.1 0 462.896 -153.3 0 133.7 -190.3 0 
442.695 -41.9 0 119.7 -129.9 0 196.297 -144.3 0 
95.1 -153.3 0 268.896 -121.5 0 342.696 -93.1 0 
389.894 -164.7 0 108.3 -164.7 0 55.5 -164.7 0 
389.894 -34.1 0 521.496 -128.3 0 361.695 -43.1 0 
168.097 -47.1 0 147.9 -153.3 0 409.695 -8.5 0 
119.7 -153.3 0 247.297 -148.5 0 361.695 -155.698 0 
491.096 -39.3 0 268.896 -195.9 0 414.495 -140.9 0 
542.096 -148.5 0 159.3 -164.7 0 95.1 -129.9 0 
498.496 -151.5 0 462.896 -47.1 0 414.495 -57.9 0 
207.297 -8.1 0 226.697 -128.3 0 529.315 -135.967 0 
513.14 -136.729 0 183.831 -96.9657 0 138.891 -170.193 0 
131.223 -154.991 0 128.299 -171.966 0 462.896 -90.5093 0 
110.919 -85.2136 0 119.7 -81.6129 0 367.352 -28.2495 0 
359.984 -20.4103 0 355.745 -37.1504 0 406.425 -148.708 0 
201.462 -169.251 0 185.37 -154.401 0 80.3742 -144.707 0 
77.9472 -154.89 0 121.414 -111.683 0 426.352 -25.3585 0 
215.926 -139.164 0 146.107 -177.893 0 153.123 -158.523 0 
119.7 -141.311 0 76.7379 -127.732 0 77.9941 -72.3577 0 
330.387 -93.1 0 136.238 -72.6882 0 319.018 -44.3 0 
310.886 -63.4453 0 326.663 -64.9944 0 86.6951 -30.4925 0 
389.894 -95.2632 0 101.3 -45.5001 0 168.097 -99.2061 0 
386.133 -173.479 0 376.758 -159.758 0 367.779 -173.371 0 
495.701 -172.281 0 472.57 -69.2363 0 531.697 -60.2884 0 
517.033 -43.7272 0 95.1 -68.428 0 431.233 -108.522 0 
372.345 -89.427 0 496.888 -26.7058 0 392.047 -190.298 0 
73.8491 -171.001 0 85.5041 -171.452 0 94.5118 -176.688 0 
100.941 -159.141 0 356.197 -161.104 0 361.221 -179.336 0 
292.054 -104.399 0 283.002 -155.222 0 442.695 -100.558 0 
61.6771 -158.523 0 69.3336 -178.643 0 391.993 -8.5 0 
114.477 -158.523 0 120.21 -176.704 0 524.865 -31.0937 0 
224.272 -25.2413 0 107.097 -129.9 0 480.137 -158.432 0 
462.896 -98.4861 0 315.434 -53.0519 0 311.087 -44.3 0 
307.352 -53.642 0 521.279 -144.917 0 530.295 -148.592 0 
535.863 -142.388 0 168.097 -118.946 0 276.422 -115.155 0 
124.313 -161.592 0 515.221 -63.9016 0 326.192 -44.3 0 
330.26 -55.2412 0 134.719 -61.3633 0 127.722 -66.8586 0 
119.7 -72.0001 0 127.875 -76.5405 0 141.838 -59.9651 0 
111.711 -94.036 0 119.7 -91.4155 0 359.33 -29.8848 0 
355.067 -25.3274 0 406.215 -124.266 0 315.629 -103.201 0 
87.4186 -148.407 0 136.095 -134.407 0 129.582 -129.252 0 
126.871 -136.476 0 361.695 -75.9734 0 423.553 -35.8594 0 
225.465 -138.185 0 234.053 -135.513 0 220.975 -134.072 0 
324.499 -102.206 0 141.481 -159.731 0 176.769 -150.297 0 
75.9344 -87.6578 0 75.3305 -111.5 0 85.9968 -98.9869 0 
212.892 -169.506 0 201.954 -179.061 0 217.18 -178.473 0 
75.1004 -137.49 0 91.6322 -116.778 0 73.3292 -65.3386 0 
301.573 -115.159 0 127.11 -84.6295 0 226.136 -156.307 0 
219.082 -162.613 0 215.576 -152.152 0 312.652 -80.5611 0 
322.83 -75.3853 0 234.89 -150.239 0 235.586 -160.155 0 
129.829 -145.143 0 139.56 -149.512 0 93.4741 -33.4917 0 
116.698 -51.5215 0 400.869 -77.6033 0 193.388 -150.934 0 
405.772 -49.4606 0 105.043 -58.6824 0 168.097 -72.4485 0 
371.65 -166.646 0 368.696 -159.038 0 147.857 -166.951 0 
152.242 -171.758 0 140.354 -183.646 0 135.277 -179.077 0 
240.049 -141.393 0 373.549 -37.3329 0 365.138 -37.1068 0 
209.458 -145.689 0 417.598 -27.2679 0 417.946 -16.851 0 
411.695 -19.2454 0 506.746 -168.752 0 511.307 -179.142 0 
507.308 -42.8122 0 435.278 -34.3932 0 127.118 -121.768 0 
140.099 -140.683 0 112.975 -57.1753 0 86.6649 -71.44 0 
95.1 -84.5847 0 85.5807 -136.098 0 87.6077 -125.497 0 
99.533 -123.026 0 380.952 -93.0105 0 389.894 -61.4557 0 
380.41 -64.5711 0 398.468 -42.3951 0 479.995 -42.6554 0 
88.2736 -159.792 0 95.0152 -166.582 0 100.131 -171.069 0 
355.218 -173.17 0 288.9 -96.1139 0 284.122 -112.291 0 
300.723 -106.034 0 293.084 -113.25 0 288.834 -138.404 0 
423.295 -84.9242 0 397.746 -157.103 0 63.0592 -172.319 0 
370.212 -19.5349 0 365.66 -14.7343 0 240.684 -56.5742 0 
234.345 -62.7951 0 103.97 -100.5 0 419.544 -156.346 0 
392.11 -24.897 0 384.062 -25.8719 0 185.924 -41.0638 0 
118.902 -167.097 0 114.663 -171.113 0 124.349 -34.6897 0 
98.1378 -19.1583 0 99.2245 -28.2828 0 108.613 -18.7312 0 
73.4758 -43.5866 0 78.5802 -51.129 0 86.3187 -42.7213 0 
508.509 -26.3067 0 512.813 -18.9227 0 502.539 -18.759 0 
116.149 -15.3485 0 139.159 -38.3588 0 483.87 -93.3245 0 
483.056 -149.709 0 112.086 -100.5 0 132.926 -163.768 0 
236.04 -37.1247 0 101.985 -115.579 0 473.007 -149.432 0 
115.409 -105.972 0 470.791 -129.756 0 462.896 -125.92 0 
366.562 -94.9639 0 368.915 -127.314 0 505.103 -144.835 0 
174.496 -99.0229 0 389.894 -129.389 0 428.269 -171.5 0 
168.097 -127.716 0 178.031 -123.288 0 379.323 -181.866 0 
376.332 -174.055 0 370.643 -180.462 0 383.941 -160.377 0 
380.721 -167.003 0 381.978 -35.5109 0 378.278 -17.4969 0 
375.902 -27.3119 0 529.725 -160.812 0 498.098 -161.905 0 
526.968 -64.9295 0 537.065 -55.021 0 526.083 -49.8145 0 
95.1 -49.7457 0 87.2618 -53.9033 0 81.094 -62.2715 0 
97.6613 -108.574 0 102.389 -36.0383 0 433.774 -133.879 0 
377.985 -127.724 0 407.859 -107.44 0 404.517 -17.4166 0 
408.866 -27.2501 0 487.891 -33.0699 0 382.15 -190.298 0 
388.834 -181.302 0 400.436 -190.298 0 397.214 -182.058 0 
68.5346 -162.871 0 79.0343 -163.904 0 79.3056 -179.184 0 
88.0249 -183.175 0 366.333 -184.587 0 361.512 -166.919 0 
302.446 -83.0407 0 307.981 -99.8326 0 295.02 -78.8744 0 
278.038 -121.5 0 288.336 -168.821 0 275.633 -176.473 0 
323.484 -119.862 0 442.695 -127.878 0 442.695 -75.4683 0 
432.974 -71.0306 0 75.064 -184.418 0 415.667 -184.254 0 
435.18 -164.506 0 401.213 -8.5 0 395.935 -16.7542 0 
382.415 -8.5 0 387.038 -16.7981 0 192.545 -32.53 0 
204.435 -19.6367 0 126.688 -183.233 0 505.257 -33.4412 0 
531.497 -37.7904 0 217.381 -27.7421 0 218.882 -19.7985 0 
212.061 -33.8114 0 108.811 -109.797 0 111.23 -120.174 0 
488.101 -165.482 0 476.777 -122.108 0 462.896 -71.8671 0 
470.24 -100.478 0 371.07 -70.0736 0 206.893 -40.4788 0 
202.319 -45.4409 0 175.471 -160.634 0 319.577 -110.974 0 
80.3729 -118.637 0 211.063 -184.561 0 85.7751 -90.3715 0 
127.053 -99.8201 0 208.222 -160.614 0 229.448 -166.264 0 
406.654 -61.7357 0 231.937 -142.742 0 505.862 -184.561 0 
497.128 -45.4513 0 427.82 -44.4439 0 95.1 -92.2325 0 
190.665 -175.746 0 389.894 -51.767 0 95.1 -141.812 0 
396.813 -32.3737 0 470.432 -39.6021 0 291.849 -129.71 0 
398.591 -141.561 0 423.794 -75.0931 0 414.495 -69.5803 0 
225.373 -48.8133 0 218.174 -51.8703 0 215.071 -58.4446 0 
417.283 -148.408 0 175.99 -39.247 0 107.378 -28.4853 0 
507.607 -13.6653 0 130.359 -42.8508 0 480.138 -54.6426 0 
481.716 -108.158 0 241.807 -42.948 0 470.105 -160.471 0 
178.934 -81.2897 0 361.695 -144.225 0 515.866 -153.502 0 
137.843 -50.5279 0 110.384 -41.0987 0 398.514 -57.8847 0 
396.964 -120.966 0 399.241 -103.201 0 179.43 -106.779 0 
523.088 -155.75 0 524.247 -166.264 0 514.296 -51.0475 0 
509.883 -58.4573 0 102.66 -82.3483 0 107.779 -74.8945 0 
88.9226 -63.4328 0 95.1 -58.3808 0 114.655 -23.9871 0 
389.894 -112.147 0 380.846 -110.91 0 408.15 -41.9936 0 
400.516 -25.4047 0 486.366 -23.7495 0 299.185 -95.1784 0 
292.732 -87.7084 0 279.575 -165.106 0 315.112 -118.318 0 
428.051 -118.111 0 433.25 -61.6092 0 406.644 -179.906 0 
412.332 -155.29 0 141.104 -88.9874 0 132.563 -115.166 0 
131.217 -106.738 0 406.545 -169.655 0 426.234 -150.907 0 
193.274 -22.0511 0 523.167 -39.6026 0 216.807 -43.17 0 
485.212 -175.496 0 468.503 -90.1723 0 472.832 -111.426 0 
462.896 -116.152 0 423.273 -92.5951 0 370.052 -59.5397 0 
361.695 -113.783 0 188.446 -104.732 0 469.445 -120.901 0 
220.421 -63.8996 0 208.526 -51.7707 0 403.979 -114.55 0 
182.927 -168.05 0 417.27 -46.5838 0 413.856 -36.0508 0 
77.74 -95.463 0 76.0038 -103.531 0 223.228 -172.454 0 
73.2674 -146.869 0 86.0728 -108.753 0 73.4718 -57.4926 0 
74.3747 -79.787 0 307.56 -123.119 0 136.048 -81.302 0 
317.542 -69.702 0 308.728 -73.557 0 240.926 -154.84 0 
126.931 -54.5465 0 120.775 -43.8612 0 176.026 -89.5881 0 
224.272 -146.93 0 518.027 -172.454 0 503.322 -51.7673 0 
435.955 -44.2189 0 111.671 -66.0851 0 84.6154 -81.0162 0 
95.1 -76.7832 0 192.444 -166.965 0 196.953 -159.379 0 
198.12 -183.161 0 361.695 -94.9133 0 389.894 -79.428 0 
404.458 -34.4615 0 477.879 -32.193 0 283.978 -103.637 0 
292.538 -148.762 0 286.148 -146.151 0 302.379 -131.136 0 
406.665 -134.154 0 431.426 -91.5139 0 423.74 -64.8554 0 
398.284 -131.586 0 397.758 -149.365 0 396.808 -173.493 0 
405.977 -160.213 0 234.987 -50.1242 0 225.919 -58.0671 0 
139.931 -107.14 0 140.977 -116.079 0 138.009 -124.593 0 
102.678 -91.6653 0 185.39 -29.8948 0 116.684 -33.0598 0 
103.4 -13.9463 0 92.242 -24.9982 0 80.5249 -36.6042 0 
519.112 -25.2835 0 123.963 -23.163 0 131.717 -30.9175 0 
482.594 -83.1532 0 272.369 -113.521 0 229.824 -30.8478 0 
477.692 -168.016 0 188.538 -79.2429 0 471.868 -139.035 0 
175.478 -59.2077 0 371.629 -108.413 0 227.748 -41.0122 0 
512.665 -146.821 0 507.12 -156.185 0 521.271 -136.529 0 
397.623 -49.9072 0 397.333 -84.707 0 389.894 -148.348 0 
175.804 -141.801 0 536.319 -154.25 0 515.369 -162.69 0 
521.037 -58.7243 0 534.008 -47.4367 0 103.213 -65.284 0 
434.13 -143.896 0 372.804 -143.526 0 381.728 -144.87 0 
494.392 -15.7647 0 308.785 -89.9237 0 301.16 -70.8617 0 
302.546 -61.1424 0 278.45 -182.591 0 282.634 -169.4 0 
272.469 -185.596 0 297.591 -155.93 0 288.381 -159.49 0 
313.151 -134.255 0 333.458 -105.967 0 297.93 -139.66 0 
435.821 -115.843 0 442.695 -82.9831 0 442.695 -58.5816 0 
491.096 -69.1689 0 147.9 -100.211 0 141.565 -68.0919 0 
131.042 -91.1491 0 137.135 -98.5074 0 421.865 -177.982 0 
416.795 -172.518 0 425.276 -162.327 0 434.187 -154.318 0 
[...]
CELL_DATA 1448
FIELD FieldData 1
medit:ref 1 1448 int
0 0 0 0 0 0 0 0 0 
0 0 0 0 0 0 0 0 0 
0 0 0 0 0 0 0 0 0 
0 0 0 0 0 0 0 0 0 
0 0 0 0 0 0 0 0 0 
0 0 0 0 0 0 0 0 0 
0 0 0 0 0 0 0 0 0 
0 0 0 0 0 0 0 0 0 
0 0 0 0 0 0 0 0 0 
0 0 0 0 0 0 0 0 0 
0 0 0 0 0 0 0 0 0 
0 0 0 0 0 0 0 0 0 
0 0 0 0 0 0 0 0 0 
0 0 0 0 0 0 0 0 0 
0 0 0 0 0 0 0 0 0 
0 0 0 0 0 0 0 0 0 
0 0 0 0 0 0 0 0 0 
0 0 0 0 0 0 0 0 0 
0 0 0 0 0 0 0 0 0 
0 0 0 0 0 0 0 0 0 
0 0 0 0 0 0 0 0 0 
0 0 0 0 0 0 0 0 0 
0 0 0 0 0 0 0 0 0 
0 0 0 0 0 0 0 0 0 
0 0 0 0 0 0 0 0 0 
0 0 0 0 0 0 0 0 0 
0 0 0 0 0 0 0 0 0 
0 0 0 0 0 0 0 0 0 
0 0 0 0 0 0 0 0 0 
0 0 0 0 0 0 0 0 0 
0 0 0 0 0 0 0 0 0 
0 0 0 0 0 0 0 0 0 
0 0 0 0 0 0 0 0 0 
0 0 0 0 0 0 0 0 0 
0 0 0 0 0 0 0 0 0 
0 0 0 0 0 0 0 0 0 
0 0 0 0 0 3 4 4 4 
5 3 6 4 4 3 8 3 3 
8 3 4 3 6 4 4 4 6 
3 2 2 4 4 4 4 6 4 
4 6 8 8 4 6 6 4 6 
4 2 3 2 2 4 3 6 6 
6 6 6 6 2 4 4 4 5 
6 6 6 2 2 6 6 6 4 
4 6 8 6 4 6 6 6 3 
3 4 2 3 2 2 8 2 4 
4 8 4 4 4 4 4 4 4 
5 5 6 6 3 8 4 4 4 
4 8 8 8 3 3 4 4 4 
4 3 3 4 4 4 4 4 4 
4 4 3 8 8 3 4 4 4 
4 4 3 6 6 6 4 4 4 
4 4 4 3 6 6 6 3 2 
4 4 4 4 4 4 3 4 4 
4 3 3 6 6 6 2 6 4 
4 4 6 6 8 8 8 8 7 
4 4 7 6 6 6 6 6 3 
4 5 6 3 4 4 5 4 4 
4 4 4 4 4 2 4 4 4 
2 4 4 4 4 4 4 4 4 
2 2 2 2 2 2 4 3 4 
4 7 7 7 7 3 6 6 6 
6 6 6 6 6 6 6 6 6 
6 6 2 2 2 2 2 5 5 
5 5 5 5 4 4 4 4 4 
4 6 6 6 6 6 6 6 6 
2 2 2 6 6 6 6 6 6 
6 6 4 4 4 4 4 4 4 
4 4 4 4 4 6 6 6 6 
8 8 8 8 8 8 8 8 8 
8 6 6 6 6 6 6 4 4 
4 4 4 4 4 6 6 6 6 
6 6 6 6 6 6 6 6 6 
3 3 3 3 3 3 4 4 4 
4 2 2 2 3 3 4 4 4 
4 4 4 4 4 4 2 2 2 
6 8 8 2 3 3 7 3 6 
3 4 3 4 4 4 8 4 3 
3 8 3 4 3 3 6 6 2 
2 6 5 4 3 6 6 6 2 
8 8 6 7 7 3 4 3 2 
4 2 2 3 2 2 4 2 2 
2 2 2 2 5 4 4 4 4 
6 6 4 2 8 8 8 8 6 
6 6 4 6 6 6 2 2 8 
8 8 8 2 3 2 8 4 4 
5 3 7 7 3 3 6 6 3 
3 8 4 4 4 3 3 4 4 
4 4 4 4 4 4 4 4 8 
4 3 3 3 3 3 8 8 8 
8 3 3 3 4 4 3 3 3 
6 6 6 6 6 2 2 2 2 
2 6 6 6 6 4 5 4 4 
4 4 3 3 3 3 2 6 6 
6 6 2 8 8 8 8 8 8 
8 7 7 7 6 7 7 7 6 
3 3 3 3 3 3 3 3 5 
4 4 4 4 4 5 6 6 6 
6 3 5 4 4 4 4 2 2 
2 2 4 4 4 4 2 2 3 
3 3 3 2 2 2 3 3 3 
2 2 2 2 4 4 4 4 4 
7 7 7 7 7 7 7 7 2 
2 2 2 2 2 2 2 2 2 
2 4 2 2 5 5 5 5 5 
5 5 5 5 4 4 4 4 4 
4 4 4 4 4 4 4 4 4 
6 6 6 6 6 6 6 6 6 
6 6 6 6 2 8 8 8 8 
8 8 8 8 8 8 8 8 8 
8 8 8 8 8 8 8 8 8 
8 8 8 8 8 8 8 8 8 
8 6 6 6 6 6 6 6 6 
6 6 4 4 4 4 4 4 4 
4 4 4 4 4 4 4 4 6 
6 6 6 6 6 6 3 2 2 
2 2 2 2 2 2 2 2 2 
2 3 3 3 3 3 3 3 3 
3 3 2 2 2 2 2 8 3 
3 3 6 4 6 4 2 3 6 
6 3 3 6 6 8 4 2 6 
3 2 7 3 6 6 6 8 7 
7 7 7 4 3 2 2 2 2 
2 2 2 3 2 3 3 6 6 
7 7 7 3 3 8 3 7 6 
6 6 4 6 6 8 8 6 6 
6 6 6 6 6 4 2 2 2 
2 2 6 8 6 2 6 3 2 
3 3 2 2 7 7 7 3 3 
3 6 6 6 6 8 6 6 3 
4 3 2 2 8 2 2 3 3 
2 2 3 7 3 3 7 6 6 
7 7 7 6 4 6 8 3 4 
3 6 6 6 6 6 6 8 6 
6 6 6 6 6 6 2 8 2 
2 8 6 6 6 6 2 3 6 
8 3 3 3 2 3 2 3 8 
7 4 4 4 4 4 4 4 4 
7 3 7 2 3 3 3 3 6 
6 6 6 6 6 6 6 7 8 
7 6 6 6 7 7 7 7 5 
7 7 7 4 2 2 2 3 2 
2 2 2 2 2 6 2 2 4 
2 2 2 2 2 4 3 3 3 
3 6 3 2 2 7 8 2 2 
3 5 3 3 4 3 3 3 4 
3 3 4 3 4 6 3 6 6 
6 6 7 7 7 7 7 7 7 
7 7 7 6 7 7 7 4 7 
7 3 3 3 3 3 3 3 3 
3 3 3 3 3 3 4 5 6 
6 6 6 6 6 6 6 6 6 
6 6 6 6 6 6 6 6 7 
6 4 6 6 8 8 8 8 8 
8 8 8 8 8 8 6 6 6 
6 4 4 6 6 6 6 6 6 
6 6 4 2 2 2 3 2 2 
3 2 2 2 2 2 5 2 5 
2 4 6 4 6 5 6 4 2 
7 6 8 6 6 6 6 6 6 
4 6 8 6 8 2 8 8 
POINT_DATA 706
FIELD FieldData 1
mesh.sol:metric 1 706 double
10 10 10 10 10 10 10 10 10 
10 10 10 10 10 10 10 10 10 
10 10 10 10 10 10 10 10 10 
10 10 10 10 10 10 10 10 10 
10 10 10 10 10 10 10 10 10 
10 10 10 10 10 10 10 10 10 
10 10 10 10 10 10 10 10 10 
10 10 10 10 10 10 10 10 10 
10 10 10 10 10 10 10 10 10 
10 10 10 10 10 10 10 10 10 
10 10 10 10 10 10 10 10 10 
10 10 10 10 10 10 10 10 10 
10 10 10 10 10 10 10 10 10 
10 10 10 10 10 10 10 10 10 
10 10 10 10 10 10 10 10 10 
10 10 10 10 10 10 10 10 10 
10 10 10 10 10 10 10 10 10 
10 10 10 10 10 10 10 10 10 
10 10 10 10 10 10 10 10 10 
10 10 10 10 10 10 10 10 10 
10 10 10 10 10 10 10 10 10 
10 10 10 10 10 10 10 10 10 
10 10 10 10 10 10 10 10 10 
10 10 10 10 10 10 10 10 10 
10 10 10 10 10 10 10 10 10 
10 10 10 10 10 10 10 10 10 
10 10 10 10 10 10 10 10 10 
10 10 10 10 10 10 10 10 10 
10 10 10 10 10 10 10 10 10 
10 10 10 10 10 10 10 10 10 
10 10 10 10 10 10 10 10 10 
10 10 10 10 10 10 10 10 10 
10 10 10 10 10 10 10 10 10 
10 10 10 10 10 10 10 10 10 
10 10 10 10 10 10 10 10 10 
10 10 10 10 10 10 10 10 10 
10 10 10 10 10 10 10 10 10 
10 10 10 10 10 10 10 10 10 
10 10 10 10 10 10 10 10 10 
10 10 10 10 10 10 10 10 10 
10 10 10 10 10 10 10 10 10 
10 10 10 10 10 10 10 10 10 
10 10 10 10 10 10 10 10 10 
10 10 10 10 10 10 10 10 10 
10 10 10 10 10 10 10 10 10 
10 10 10 10 10 10 10 10 10 
10 10 10 10 10 10 10 10 10 
10 10 10 10 10 10 10 10 10 
10 10 10 10 10 10 10 10 10 
10 10 10 10 10 10 10 10 10 
10 10 10 10 10 10 10 10 10 
10 10 10 10 10 10 10 10 10 
10 10 10 10 10 10 10 10 10 
10 10 10 10 10 10 10 10 10 
10 10 10 10 10 10 10 10 10 
10 10 10 10 10 10 10 10 10 
10 10 10 10 10 10 10 10 10 
10 10 10 10 10 10 10 10 10 
10 10 10 10 10 10 10 10 10 
10 10 10 10 10 10 10 10 10 
10 10 10 10 10 10 10 10 10 
10 10 10 10 10 10 10 10 10 
10 10 10 10 10 10 10 10 10 
10 10 10 10 10 10 10 10 10 
10 10 10 10 10 10 10 10 10 
10 10 10 10 10 10 10 10 10 
10 10 10 10 10 10 10 10 10 
10 10 10 10 10 10 10 10 10 
10 10 10 10 10 10 10 10 10 
10 10 10 10 10 10 10 10 10 
10 10 10 10 10 10 10 10 10 
10 10 10 10 10 10 10 10 10 
10 10 10 10 10 10 10 10 10 
10 10 10 10 10 10 10 10 10 
10 10 10 10 10 10 10 10 10 
10 10 10 10 10 10 10 10 10 
10 10 10 10 10 10 10 10 10 
10 10 10 10 10 10 10 10 10 
10 10 10 10 
