# vtk DataFile Version 5.1
vtk output
ASCII
DATASET UNSTRUCTURED_GRID
POINTS 694 float
294.696 -121.5 0 302.496 -44.3 0 248.097 -49.3 0 
106.5 -164.7 0 147.9 -47.1 0 491.096 -144.3 0 
80.9 -190.3 0 109.1 -8.3 0 349.695 -167.498 0 
500.096 -190.3 0 119.7 -63.9 0 66.9 -153.3 0 
95.1 -100.5 0 349.495 -30.9 0 542.894 -49.3 0 
371.894 -190.298 0 196.297 -39.3 0 95.1 -39.3 0 
371.894 -8.5 0 226.697 -70.3 0 168.097 -153.3 0 
119.7 -100.5 0 334.296 -44.3 0 409.695 -190.298 0 
316.296 -93.1 0 442.695 -156.9 0 521.496 -70.3 0 
205.297 -190.3 0 203.697 -151.5 0 66.9 -50.1 0 
502.096 -8.1 0 462.896 -153.3 0 133.7 -190.3 0 
442.695 -41.9 0 119.7 -129.9 0 196.297 -144.3 0 
95.1 -153.3 0 268.896 -121.5 0 342.696 -93.1 0 
389.894 -164.7 0 108.3 -164.7 0 55.5 -164.7 0 
389.894 -34.1 0 521.496 -128.3 0 361.695 -43.1 0 
168.097 -47.1 0 147.9 -153.3 0 409.695 -8.5 0 
119.7 -153.3 0 247.297 -148.5 0 361.695 -155.698 0 
491.096 -39.3 0 268.896 -195.9 0 414.495 -140.9 0 
542.096 -148.5 0 159.3 -164.7 0 95.1 -129.9 0 
498.496 -151.5 0 462.896 -47.1 0 414.495 -57.9 0 
207.297 -8.1 0 226.697 -128.3 0 193.645 -151.265 0 
529.315 -135.967 0 513.14 -136.729 0 178.157 -95.0328 0 
138.891 -170.193 0 131.223 -154.991 0 128.299 -171.966 0 
272.369 -113.521 0 110.919 -85.2136 0 119.7 -81.6129 0 
367.363 -28.1687 0 359.984 -20.4103 0 355.745 -37.1504 0 
389.894 -96.3063 0 406.425 -148.708 0 399.116 -90.8594 0 
201.504 -169.386 0 186.18 -156.845 0 80.3742 -144.707 0 
77.9472 -154.89 0 121.414 -111.683 0 215.926 -139.164 0 
146.107 -177.893 0 153.123 -158.523 0 119.7 -141.311 0 
76.7379 -127.732 0 77.9943 -72.3569 0 138.751 -71.0106 0 
319.018 -44.3 0 310.821 -63.8664 0 326.28 -66.0335 0 
168.097 -99.1256 0 87.3807 -29.8134 0 393.627 -156.223 0 
386.444 -173.632 0 112.975 -57.1753 0 368.065 -173.188 0 
189.333 -137.056 0 495.701 -172.281 0 531.697 -60.2884 0 
517.033 -43.7272 0 95.1 -68.428 0 442.695 -99.9357 0 
426.866 -148.261 0 372.648 -89.8814 0 496.888 -26.7058 0 
392.047 -190.298 0 73.8491 -171.001 0 85.5041 -171.452 0 
94.5118 -176.688 0 100.941 -159.141 0 356.197 -161.104 0 
361.221 -179.336 0 292.063 -104.398 0 283.002 -155.222 0 
61.6771 -158.523 0 69.3336 -178.643 0 391.993 -8.5 0 
114.477 -158.523 0 120.21 -176.704 0 524.865 -31.0937 0 
224.272 -25.2413 0 107.097 -129.9 0 480.137 -158.432 0 
462.896 -97.518 0 315.692 -53.9722 0 311.087 -44.3 0 
307.352 -53.642 0 521.279 -144.917 0 530.295 -148.592 0 
535.863 -142.388 0 187.479 -90.3816 0 187.094 -111.3 0 
124.313 -161.592 0 462.896 -89.6122 0 398.158 -164.372 0 
326.192 -44.3 0 330.26 -55.2412 0 130.303 -65.2663 0 
119.7 -72.0001 0 128.577 -75.9159 0 139.92 -60.8762 0 
111.711 -94.036 0 119.7 -91.4155 0 359.33 -29.865 0 
355.067 -25.3274 0 316.222 -102.705 0 87.4186 -148.407 0 
136.095 -134.407 0 129.582 -129.252 0 126.871 -136.476 0 
425.588 -24.5854 0 423.749 -35.7782 0 225.466 -138.184 0 
234.053 -135.513 0 220.975 -134.072 0 325.876 -103.475 0 
141.481 -159.731 0 177.119 -150.84 0 75.9344 -87.6578 0 
75.3305 -111.5 0 85.9968 -98.9869 0 212.95 -169.556 0 
202.384 -179.393 0 217.18 -178.473 0 75.1004 -137.49 0 
91.6322 -116.778 0 73.3295 -65.338 0 301.573 -115.158 0 
127.224 -84.4438 0 226.149 -156.306 0 219.167 -162.644 0 
215.613 -152.15 0 312.652 -80.5625 0 322.83 -75.3853 0 
234.896 -150.238 0 235.586 -160.155 0 129.829 -145.143 0 
94.1863 -33.3753 0 116.693 -51.9585 0 406.779 -79.381 0 
405.772 -49.4606 0 139.56 -149.512 0 372.669 -166.293 0 
369.722 -159.206 0 147.857 -166.951 0 152.242 -171.758 0 
140.354 -183.646 0 135.277 -179.077 0 240.049 -141.393 0 
373.709 -36.8244 0 365.281 -37.0034 0 209.458 -145.689 0 
417.631 -29.0103 0 329.364 -93.1 0 413.655 -20.3978 0 
506.746 -168.752 0 511.307 -179.142 0 507.308 -42.8122 0 
434.87 -33.98 0 127.118 -121.768 0 140.099 -140.683 0 
86.6647 -71.4395 0 95.1 -84.5847 0 85.5807 -136.098 0 
87.6077 -125.497 0 99.533 -123.026 0 381.219 -93.4048 0 
361.695 -76.638 0 380.446 -64.9278 0 398.468 -42.3951 0 
479.995 -42.6554 0 88.2736 -159.792 0 95.0152 -166.582 0 
100.131 -171.069 0 355.218 -173.17 0 288.91 -96.1155 0 
284.125 -112.29 0 300.75 -106.022 0 293.087 -113.248 0 
288.834 -138.404 0 398.103 -128.925 0 389.894 -134.839 0 
397.746 -157.103 0 63.0592 -172.319 0 396.965 -64.0315 0 
370.218 -19.5277 0 365.66 -14.7343 0 240.684 -56.5742 0 
234.345 -62.7951 0 103.97 -100.5 0 421.85 -156.978 0 
392.131 -24.9089 0 384.098 -25.7929 0 185.826 -41.1925 0 
118.902 -167.097 0 114.663 -171.113 0 124.618 -34.8554 0 
462.896 -144.422 0 174.776 -75.4598 0 168.097 -128.691 0 
176.873 -124.562 0 508.509 -26.3067 0 512.813 -18.9227 0 
502.539 -18.759 0 117.017 -16.2174 0 108.715 -18.2589 0 
140.82 -40.0197 0 483.829 -93.2469 0 147.9 -99.2526 0 
112.086 -100.5 0 132.926 -163.768 0 236.04 -37.1247 0 
101.985 -115.579 0 473.007 -149.432 0 286.704 -121.5 0 
470.791 -129.756 0 462.896 -125.92 0 366.68 -95.5728 0 
505.103 -144.835 0 98.1378 -19.1583 0 99.6558 -28.0303 0 
73.4758 -43.5866 0 78.5929 -51.1145 0 86.3615 -42.669 0 
366.419 -52.6158 0 379.347 -181.903 0 376.501 -174.102 0 
370.618 -180.473 0 381.3 -167.36 0 382.055 -35.2711 0 
378.306 -17.4491 0 375.927 -27.1784 0 529.725 -160.812 0 
498.098 -161.905 0 526.968 -64.9295 0 537.065 -55.021 0 
526.083 -49.8145 0 470.536 -69.8174 0 95.1 -49.7457 0 
87.2674 -53.8884 0 81.0942 -62.2683 0 97.6613 -108.574 0 
417.922 -16.8267 0 442.695 -128.605 0 435.473 -150.303 0 
442.695 -73.4088 0 185.537 -120.145 0 372.891 -125.521 0 
381.384 -130.431 0 405.225 -17.6862 0 409.311 -27.5581 0 
487.891 -33.0699 0 382.15 -190.298 0 388.846 -181.409 0 
400.436 -190.298 0 396.877 -182.864 0 68.5346 -162.871 0 
79.0343 -163.904 0 79.3056 -179.184 0 88.0249 -183.175 0 
366.333 -184.587 0 361.899 -166.719 0 302.451 -83.0436 0 
308.095 -99.8437 0 295.021 -78.8751 0 278.038 -121.5 0 
288.336 -168.821 0 275.633 -176.473 0 323.484 -119.862 0 
75.064 -184.418 0 415.667 -184.254 0 435.18 -164.506 0 
401.213 -8.5 0 396.172 -16.8227 0 382.415 -8.5 0 
387.115 -16.784 0 192.512 -32.5692 0 204.434 -19.6382 0 
126.688 -183.233 0 505.257 -33.4412 0 531.497 -37.7904 0 
217.386 -27.754 0 218.882 -19.7985 0 212.064 -33.8193 0 
108.811 -109.797 0 111.23 -120.174 0 488.101 -165.482 0 
476.777 -122.108 0 462.896 -72.923 0 470.24 -100.478 0 
371.98 -68.6914 0 106.923 -51.123 0 104.317 -35.7372 0 
206.891 -40.4804 0 202.319 -45.4409 0 414.495 -129.218 0 
175.471 -160.634 0 418.184 -46.6566 0 319.443 -111.237 0 
80.3729 -118.637 0 211.063 -184.561 0 85.7751 -90.3715 0 
127.049 -99.8311 0 208.542 -160.665 0 229.448 -166.264 0 
186.04 -129.577 0 405.566 -61.1536 0 231.941 -142.741 0 
505.862 -184.561 0 497.128 -45.4513 0 95.1 -92.2325 0 
190.519 -175.602 0 389.894 -53.2537 0 95.1 -141.812 0 
396.89 -32.3966 0 470.432 -39.6021 0 291.849 -129.71 0 
397.288 -138.922 0 225.368 -48.8673 0 218.169 -51.887 0 
215.071 -58.4446 0 417.687 -148.222 0 175.99 -39.247 0 
107.212 -26.7678 0 491.096 -69.1689 0 178.436 -83.8714 0 
179.007 -134.497 0 507.607 -13.6653 0 130.826 -43.7074 0 
480.138 -54.6426 0 481.716 -108.158 0 242.447 -43.595 0 
470.105 -160.471 0 361.695 -145.458 0 515.866 -153.502 0 
133.497 -54.7596 0 111.098 -43.1463 0 406.278 -112.494 0 
406.572 -89.2612 0 523.088 -155.75 0 524.247 -166.264 0 
514.296 -51.0475 0 509.883 -58.4573 0 102.66 -82.3483 0 
107.779 -74.8945 0 88.9226 -63.4327 0 95.1 -58.3808 0 
433.946 -141.613 0 320.776 -60.7794 0 366.289 -74.3498 0 
389.894 -114.836 0 380.817 -111.528 0 408.433 -42.207 0 
400.78 -25.4836 0 486.366 -23.7495 0 299.214 -95.187 0 
292.739 -87.7131 0 279.575 -165.106 0 315.071 -118.391 0 
424.651 -64.0279 0 405.395 -181.424 0 413.215 -156.673 0 
483.056 -149.709 0 141.029 -89.2202 0 132.563 -115.167 0 
131.203 -106.764 0 410.546 -173.73 0 193.274 -22.0511 0 
523.167 -39.6026 0 216.805 -43.192 0 485.212 -175.496 0 
468.6 -89.6931 0 472.832 -111.426 0 404.585 -141.962 0 
371.988 -58.9961 0 187.482 -101.74 0 105.043 -58.6824 0 
208.526 -51.7707 0 182.988 -168.111 0 414.136 -36.6138 0 
77.74 -95.463 0 76.0038 -103.531 0 223.228 -172.454 0 
73.2674 -146.869 0 86.0728 -108.753 0 73.4718 -57.4926 0 
74.3747 -79.787 0 307.561 -123.112 0 136.401 -80.9096 0 
316.928 -70.1324 0 308.489 -73.893 0 240.926 -154.84 0 
428.96 -170.801 0 125.317 -54.1918 0 120.816 -43.8648 0 
408.057 -70.1123 0 224.283 -146.926 0 518.027 -172.454 0 
503.322 -51.7673 0 430.051 -43.5404 0 111.671 -66.0851 0 
84.6154 -81.0162 0 95.1 -76.7832 0 191.947 -166.13 0 
197.822 -159.477 0 198.019 -183.061 0 227.761 -41.1744 0 
389.894 -78.4095 0 404.745 -34.6114 0 477.879 -32.193 0 
283.981 -103.637 0 292.538 -148.762 0 286.148 -146.151 0 
302.379 -131.136 0 398.092 -107.544 0 114.565 -23.766 0 
423.879 -81.2667 0 322.475 -97.7786 0 398.204 -172.997 0 
406.19 -162.933 0 234.999 -50.1486 0 225.92 -58.0837 0 
139.812 -107.399 0 140.977 -116.079 0 138.009 -124.593 0 
102.678 -91.6653 0 185.39 -29.8948 0 115.42 -33.4939 0 
177.097 -115.503 0 176.083 -142.338 0 519.112 -25.2835 0 
124.837 -24.0373 0 139.967 -49.9628 0 132.628 -31.8277 0 
482.469 -83.0196 0 229.824 -30.8478 0 477.692 -168.016 0 
188.326 -80.161 0 471.868 -139.035 0 175.362 -60.7807 0 
371.441 -108.318 0 414.495 -66.3422 0 512.665 -146.821 0 
507.12 -156.185 0 521.271 -136.529 0 103.97 -13.3817 0 
92.8583 -24.3877 0 80.5249 -36.6042 0 536.319 -154.25 0 
515.369 -162.69 0 521.037 -58.7243 0 534.008 -47.4367 0 
103.213 -65.284 0 191.318 -125.293 0 442.695 -81.8847 0 
442.695 -54.0798 0 435.061 -50.6787 0 433.912 -109.001 0 
372.882 -144.214 0 382.005 -149.253 0 494.392 -15.7647 0 
308.994 -89.5873 0 301.16 -70.862 0 302.554 -61.1941 0 
278.45 -182.591 0 282.634 -169.4 0 272.469 -185.596 0 
297.591 -155.93 0 288.381 -159.49 0 313.151 -134.255 0 
333.458 -105.967 0 297.93 -139.66 0 131.005 -91.1553 0 
137.1 -98.5954 0 422.505 -177.334 0 425.262 -165.58 0 
431.253 -157.024 0 416.51 -166.383 0 199.926 -15.4332 0 
498.125 -36.6882 0 537.584 -43.9374 0 514.896 -34.5586 0 
213.59 -14.4546 0 210.647 -24.4205 0 201.908 -30.2428 0 
221.675 -34.6791 0 492.67 -182.913 0 490.211 -155.363 0 
[...]
CELL_DATA 1424
FIELD FieldData 1
medit:ref 1 1424 int
0 0 0 0 0 0 0 0 0 
0 0 0 0 0 0 0 0 0 
0 0 0 0 0 0 0 0 0 
0 0 0 0 0 0 0 0 0 
0 0 0 0 0 0 0 0 0 
0 0 0 0 0 0 0 0 0 
0 0 0 0 0 0 0 0 0 
0 0 0 0 0 0 0 0 0 
0 0 0 0 0 0 0 0 0 
0 0 0 0 0 0 0 0 0 
0 0 0 0 0 0 0 0 0 
0 0 0 0 0 0 0 0 0 
0 0 0 0 0 0 0 0 0 
0 0 0 0 0 0 0 0 0 
0 0 0 0 0 0 0 0 0 
0 0 0 0 0 0 0 0 0 
0 0 0 0 0 0 0 0 0 
0 0 0 0 0 0 0 0 0 
0 0 0 0 0 0 0 0 0 
0 0 0 0 0 0 0 0 0 
0 0 0 0 0 0 0 0 0 
0 0 0 0 0 0 0 0 0 
0 0 0 0 0 0 0 0 0 
0 0 0 0 0 0 0 0 0 
0 0 0 0 0 0 0 0 0 
0 0 0 0 0 0 0 0 0 
0 0 0 0 0 0 0 0 0 
0 0 0 0 0 0 0 0 0 
0 0 0 0 0 0 0 0 0 
0 0 0 0 0 0 0 0 0 
0 0 0 0 0 0 0 0 0 
0 0 0 0 0 0 0 0 0 
0 0 0 0 0 0 0 0 0 
0 0 0 0 0 0 0 0 0 
0 0 0 0 0 0 0 0 0 
0 0 0 0 0 0 0 0 0 
0 0 3 4 4 4 5 3 6 
4 4 3 8 3 3 8 3 4 
6 4 4 4 6 3 2 2 4 
4 4 4 6 4 4 6 8 8 
4 6 6 4 6 4 2 3 2 
2 4 7 6 6 6 6 6 2 
4 4 4 6 6 2 2 6 6 
6 4 4 6 8 6 4 6 6 
6 3 3 4 2 3 2 2 8 
2 4 4 8 4 4 4 4 4 
4 4 5 5 6 6 3 4 4 
4 4 8 8 8 3 6 4 4 
4 4 3 3 4 4 4 4 4 
4 4 4 3 8 8 3 4 4 
4 4 7 4 3 6 6 6 4 
4 4 4 4 4 3 6 6 6 
3 2 4 4 4 4 4 4 3 
4 4 4 3 3 6 6 6 2 
6 4 4 4 6 6 8 8 8 
8 6 7 7 4 4 7 7 6 
6 6 6 6 3 4 5 6 3 
4 4 5 3 3 3 2 4 4 
4 2 4 4 4 4 4 4 4 
4 2 2 2 2 2 2 4 4 
4 4 4 4 4 4 6 4 4 
7 6 6 6 6 6 6 6 6 
6 6 6 6 6 6 2 2 2 
8 2 2 5 5 5 5 5 5 
4 7 4 4 4 4 6 4 6 
6 6 6 6 6 6 6 2 2 
2 6 6 6 6 6 6 6 6 
4 4 4 4 4 4 4 4 4 
4 4 4 6 6 6 6 8 8 
8 8 8 8 8 8 8 8 6 
6 6 4 4 4 4 8 4 4 
6 6 6 6 6 6 6 6 6 
6 6 6 6 3 3 3 3 3 
3 4 4 4 4 2 2 2 3 
3 4 4 4 4 4 4 4 4 
4 2 2 2 3 6 8 8 2 
3 3 3 6 3 4 3 4 4 
4 8 4 3 3 8 3 4 7 
3 3 6 6 2 2 5 4 3 
6 6 2 8 8 6 6 3 4 
3 2 4 2 2 3 2 3 2 
4 7 7 2 2 2 2 2 2 
6 5 4 4 4 4 6 6 3 
2 8 8 8 8 3 6 6 6 
6 4 6 6 2 2 8 8 8 
8 2 2 8 4 4 5 3 3 
3 6 6 3 3 8 4 4 4 
3 3 4 4 4 4 4 4 4 
4 4 4 8 4 3 3 3 3 
3 8 8 8 3 3 3 3 4 
4 4 7 7 7 3 3 3 6 
4 6 6 2 2 2 2 2 6 
6 6 6 4 5 4 4 4 4 
3 3 3 3 6 6 6 2 8 
8 8 8 8 8 8 7 6 6 
7 7 6 7 7 3 3 3 3 
3 3 3 3 5 4 4 4 4 
4 5 6 6 6 3 5 4 3 
2 2 2 2 4 4 4 4 4 
2 2 3 3 3 3 2 2 2 
3 3 3 2 2 2 4 4 4 
4 4 4 4 4 7 7 7 7 
7 7 7 7 7 7 2 2 2 
2 2 2 2 2 2 2 2 2 
5 5 5 5 5 5 5 5 5 
7 4 4 4 4 4 4 4 4 
4 4 4 4 4 6 6 6 6 
6 6 6 6 6 6 6 6 6 
2 8 8 8 8 8 8 8 8 
8 8 8 8 8 8 8 8 8 
8 8 8 8 8 8 8 8 8 
8 8 8 8 8 8 6 6 6 
6 6 6 6 6 6 4 3 4 
4 4 4 4 4 4 4 4 4 
4 4 6 6 6 6 6 6 6 
3 2 2 2 2 2 2 2 2 
2 2 2 2 3 3 3 3 3 
3 3 3 3 3 2 2 2 2 
2 8 3 7 7 6 4 7 4 
3 3 2 3 3 6 6 7 6 
6 8 4 2 6 3 2 7 6 
6 6 8 7 6 7 7 7 7 
7 7 7 4 3 3 3 3 2 
2 2 2 2 2 2 3 2 3 
3 6 6 7 6 6 6 4 6 
6 6 7 6 6 8 8 6 6 
6 4 2 2 2 2 5 8 2 
3 3 2 3 7 8 6 6 6 
6 6 4 8 6 7 7 4 3 
3 3 3 3 3 6 2 2 3 
3 2 3 3 2 6 6 7 5 
6 6 6 6 6 6 8 6 6 
7 2 4 2 2 8 6 2 6 
2 2 3 3 3 6 3 6 2 
2 2 3 2 8 7 7 7 7 
7 4 4 4 4 4 4 4 4 
6 2 3 3 3 7 6 2 4 
6 8 6 6 6 6 6 8 4 
4 7 6 6 7 7 7 7 6 
7 2 7 2 7 7 7 7 8 
4 3 8 3 3 8 3 3 2 
3 3 3 2 3 3 3 6 3 
3 6 2 2 2 2 2 6 4 
2 2 2 3 2 2 2 2 2 
2 4 3 3 3 2 3 2 2 
6 2 2 2 6 3 3 6 3 
3 3 4 3 4 4 3 8 6 
6 6 6 6 7 7 5 6 6 
6 6 3 6 6 6 6 5 8 
4 3 6 6 6 6 5 4 6 
6 6 6 6 6 6 6 6 6 
6 6 8 8 8 8 8 8 8 
8 8 8 8 6 6 6 6 6 
6 3 3 8 5 6 6 6 6 
4 2 2 4 2 4 2 2 2 
2 2 2 4 2 5 2 8 6 
4 6 3 6 4 2 6 2 6 
6 6 6 6 4 6 8 8 7 
8 8 
POINT_DATA 694
FIELD FieldData 1
C:\Users\kevin\dev\mmgpy\assets\acdcBdy.sol:metric 1 694 double
10 10 10 10 10 10 10 10 10 
10 10 10 10 10 10 10 10 10 
10 10 10 10 10 10 10 10 10 
10 10 10 10 10 10 10 10 10 
10 10 10 10 10 10 10 10 10 
10 10 10 10 10 10 10 10 10 
10 10 10 10 10 10 10 10 10 
10 10 10 10 10 10 10 10 10 
10 10 10 10 10 10 10 10 10 
10 10 10 10 10 10 10 10 10 
10 10 10 10 10 10 10 10 10 
10 10 10 10 10 10 10 10 10 
10 10 10 10 10 10 10 10 10 
10 10 10 10 10 10 10 10 10 
10 10 10 10 10 10 10 10 10 
10 10 10 10 10 10 10 10 10 
10 10 10 10 10 10 10 10 10 
10 10 10 10 10 10 10 10 10 
10 10 10 10 10 10 10 10 10 
10 10 10 10 10 10 10 10 10 
10 10 10 10 10 10 10 10 10 
10 10 10 10 10 10 10 10 10 
10 10 10 10 10 10 10 10 10 
10 10 10 10 10 10 10 10 10 
10 10 10 10 10 10 10 10 10 
10 10 10 10 10 10 10 10 10 
10 10 10 10 10 10 10 10 10 
10 10 10 10 10 10 10 10 10 
10 10 10 10 10 10 10 10 10 
10 10 10 10 10 10 10 10 10 
10 10 10 10 10 10 10 10 10 
10 10 10 10 10 10 10 10 10 
10 10 10 10 10 10 10 10 10 
10 10 10 10 10 10 10 10 10 
10 10 10 10 10 10 10 10 10 
10 10 10 10 10 10 10 10 10 
10 10 10 10 10 10 10 10 10 
10 10 10 10 10 10 10 10 10 
10 10 10 10 10 10 10 10 10 
10 10 10 10 10 10 10 10 10 
10 10 10 10 10 10 10 10 10 
10 10 10 10 10 10 10 10 10 
10 10 10 10 10 10 10 10 10 
10 10 10 10 10 10 10 10 10 
10 10 10 10 10 10 10 10 10 
10 10 10 10 10 10 10 10 10 
10 10 10 10 10 10 10 10 10 
10 10 10 10 10 10 10 10 10 
10 10 10 10 10 10 10 10 10 
10 10 10 10 10 10 10 10 10 
10 10 10 10 10 10 10 10 10 
10 10 10 10 10 10 10 10 10 
10 10 10 10 10 10 10 10 10 
10 10 10 10 10 10 10 10 10 
10 10 10 10 10 10 10 10 10 
10 10 10 10 10 10 10 10 10 
10 10 10 10 10 10 10 10 10 
10 10 10 10 10 10 10 10 10 
10 10 10 10 10 10 10 10 10 
10 10 10 10 10 10 10 10 10 
10 10 10 10 10 10 10 10 10 
10 10 10 10 10 10 10 10 10 
10 10 10 10 10 10 10 10 10 
10 10 10 10 10 10 10 10 10 
10 10 10 10 10 10 10 10 10 
10 10 10 10 10 10 10 10 10 
10 10 10 10 10 10 10 10 10 
10 10 10 10 10 10 10 10 10 
10 10 10 10 10 10 10 10 10 
10 10 10 10 10 10 10 10 10 
10 10 10 10 10 10 10 10 10 
10 10 10 10 10 10 10 10 10 
10 10 10 10 10 10 10 10 10 
10 10 10 10 10 10 10 10 10 
10 10 10 10 10 10 10 10 10 
10 10 10 10 10 10 10 10 10 
10 10 10 10 10 10 10 10 10 
10 
