# vtk DataFile Version 5.1
vtk output
ASCII
DATASET UNSTRUCTURED_GRID
POINTS 702 float
294.696 -121.5 0 302.496 -44.3 0 248.097 -49.3 0 
106.5 -164.7 0 147.9 -47.1 0 491.096 -144.3 0 
80.9 -190.3 0 109.1 -8.3 0 349.695 -167.498 0 
500.096 -190.3 0 119.7 -63.9 0 66.9 -153.3 0 
95.1 -100.5 0 349.495 -30.9 0 542.894 -49.3 0 
371.894 -190.298 0 196.297 -39.3 0 95.1 -39.3 0 
371.894 -8.5 0 226.697 -70.3 0 168.097 -153.3 0 
119.7 -100.5 0 334.296 -44.3 0 409.695 -190.298 0 
316.296 -93.1 0 442.695 -156.9 0 521.496 -70.3 0 
205.297 -190.3 0 203.697 -151.5 0 66.9 -50.1 0 
502.096 -8.1 0 462.896 -153.3 0 133.7 -190.3 0 
442.695 -41.9 0 119.7 -129.9 0 196.297 -144.3 0 
95.1 -153.3 0 268.896 -121.5 0 342.696 -93.1 0 
389.894 -164.7 0 108.3 -164.7 0 55.5 -164.7 0 
389.894 -34.1 0 521.496 -128.3 0 361.695 -43.1 0 
168.097 -47.1 0 147.9 -153.3 0 409.695 -8.5 0 
119.7 -153.3 0 247.297 -148.5 0 361.695 -155.698 0 
491.096 -39.3 0 268.896 -195.9 0 414.495 -140.9 0 
542.096 -148.5 0 159.3 -164.7 0 95.1 -129.9 0 
498.496 -151.5 0 462.896 -47.1 0 414.495 -57.9 0 
207.297 -8.1 0 226.697 -128.3 0 208.632 -176.106 0 
529.315 -135.967 0 513.14 -136.729 0 178.517 -94.756 0 
138.891 -170.193 0 131.223 -154.991 0 128.299 -171.966 0 
462.896 -115.259 0 110.919 -85.2136 0 119.7 -81.6129 0 
366.651 -26.6639 0 359.984 -20.4103 0 355.084 -36.4894 0 
389.894 -98.0658 0 405.557 -149.547 0 399.244 -90.7113 0 
201.504 -169.386 0 186.18 -156.845 0 80.3742 -144.707 0 
77.9472 -154.89 0 121.414 -111.683 0 215.926 -139.164 0 
146.107 -177.893 0 153.123 -158.523 0 119.7 -141.311 0 
76.7379 -127.732 0 77.9941 -72.3577 0 330.387 -93.1 0 
136.238 -72.6882 0 319.018 -44.3 0 310.821 -63.8663 0 
326.28 -66.0335 0 168.097 -99.1256 0 86.6951 -30.4925 0 
417.922 -16.8267 0 385.874 -173.419 0 365.752 -172.11 0 
383.937 -25.1652 0 495.701 -172.282 0 531.697 -60.2884 0 
517.033 -43.7272 0 95.1 -68.428 0 432.376 -107.564 0 
372.1 -101.052 0 496.888 -26.7058 0 392.047 -190.298 0 
73.8491 -171.001 0 85.5041 -171.452 0 94.5118 -176.688 0 
100.941 -159.141 0 356.197 -161.104 0 360.653 -178.753 0 
292.054 -104.399 0 283.002 -155.222 0 442.695 -101.529 0 
61.6771 -158.523 0 69.3336 -178.643 0 391.993 -8.5 0 
114.477 -158.523 0 120.21 -176.704 0 524.865 -31.0937 0 
224.272 -25.2413 0 107.097 -129.9 0 480.139 -158.441 0 
462.896 -97.5253 0 315.692 -53.9722 0 311.087 -44.3 0 
307.352 -53.642 0 521.279 -144.917 0 530.295 -148.592 0 
535.863 -142.388 0 188.894 -93.5586 0 186.916 -113.003 0 
124.313 -161.592 0 428.269 -171.5 0 326.192 -44.3 0 
330.26 -55.2412 0 134.719 -61.3633 0 127.722 -66.8586 0 
119.7 -72.0001 0 127.875 -76.5405 0 141.829 -60.5213 0 
111.711 -94.036 0 119.7 -91.4155 0 358.736 -29.2777 0 
355.067 -25.3274 0 404.964 -115.947 0 315.629 -103.201 0 
87.4186 -148.407 0 136.095 -134.407 0 129.582 -129.252 0 
126.871 -136.476 0 483.06 -149.717 0 225.466 -138.184 0 
234.053 -135.513 0 220.975 -134.072 0 324.499 -102.206 0 
141.481 -159.731 0 177.156 -150.754 0 75.9344 -87.6578 0 
75.3305 -111.5 0 85.9968 -98.9869 0 212.95 -169.556 0 
202.384 -179.393 0 217.18 -178.473 0 75.1004 -137.49 0 
91.6322 -116.778 0 73.3292 -65.3386 0 301.573 -115.159 0 
127.11 -84.6295 0 226.149 -156.306 0 219.167 -162.644 0 
215.613 -152.15 0 312.652 -80.5611 0 322.83 -75.3853 0 
234.896 -150.238 0 235.586 -160.155 0 129.829 -145.143 0 
93.4741 -33.4917 0 116.698 -51.5215 0 406.175 -78.3072 0 
406.825 -50.4799 0 139.56 -149.512 0 371.769 -164.78 0 
369.928 -154.886 0 147.857 -166.951 0 152.242 -171.758 0 
140.354 -183.646 0 135.277 -179.077 0 240.049 -141.393 0 
373.392 -33.8746 0 364.222 -35.0345 0 371.011 -40.4515 0 
209.458 -145.689 0 423.96 -36.2153 0 417.707 -28.8282 0 
102.389 -36.0383 0 413.716 -20.3671 0 506.747 -168.752 0 
511.307 -179.142 0 507.308 -42.8122 0 434.87 -33.98 0 
127.118 -121.768 0 140.099 -140.683 0 393.767 -42.6665 0 
86.6649 -71.44 0 95.1 -84.5847 0 85.5807 -136.098 0 
87.6077 -125.497 0 99.533 -123.026 0 361.695 -85.3444 0 
368.359 -71.5484 0 501.799 -178.822 0 397.792 -41.741 0 
479.995 -42.6554 0 88.2736 -159.792 0 95.0152 -166.582 0 
100.131 -171.069 0 355.218 -173.17 0 288.9 -96.1139 0 
284.122 -112.291 0 300.723 -106.034 0 293.084 -113.25 0 
288.834 -138.404 0 398.29 -130.466 0 423.91 -81.9962 0 
389.894 -134.45 0 396.961 -157.863 0 63.0592 -172.319 0 
389.894 -62.4812 0 398.398 -58.9106 0 370.057 -18.724 0 
365.66 -14.7343 0 240.684 -56.5742 0 234.345 -62.7951 0 
103.97 -100.5 0 419.539 -156.343 0 392.115 -24.8073 0 
185.827 -41.1984 0 193.645 -151.265 0 114.663 -171.113 0 
124.349 -34.6897 0 174.535 -75.1481 0 168.097 -126.811 0 
174.857 -126.214 0 508.509 -26.3067 0 512.813 -18.9227 0 
502.539 -18.759 0 116.149 -15.3485 0 108.613 -18.7312 0 
139.159 -38.3588 0 483.916 -93.2435 0 462.896 -63.9695 0 
319.492 -84.4342 0 132.926 -163.768 0 236.04 -37.1247 0 
101.985 -115.579 0 473.01 -149.444 0 115.409 -105.972 0 
470.694 -129.425 0 462.896 -124.969 0 380.8 -103.152 0 
380.796 -138.702 0 505.103 -144.835 0 98.1378 -19.1583 0 
99.2245 -28.2828 0 73.4758 -43.5866 0 78.5802 -51.129 0 
86.3187 -42.7213 0 406.576 -97.781 0 379.04 -181.615 0 
375.584 -173.364 0 370.251 -179.937 0 379.226 -159.054 0 
380.674 -166.983 0 380.96 -32.3014 0 380.453 -41.1513 0 
378.28 -16.8814 0 375.351 -25.4153 0 529.725 -160.812 0 
498.1 -161.906 0 526.968 -64.9295 0 537.065 -55.021 0 
526.083 -49.8145 0 95.1 -49.7457 0 87.2618 -53.9033 0 
81.094 -62.2715 0 97.6613 -108.574 0 433.766 -133.831 0 
376.515 -130.387 0 369.508 -128.062 0 105.043 -58.6824 0 
405.211 -17.5587 0 409.277 -27.2061 0 487.891 -33.0699 0 
382.15 -190.298 0 388.696 -181.257 0 400.436 -190.298 0 
397.157 -182.05 0 68.5346 -162.871 0 79.0343 -163.904 0 
79.3056 -179.184 0 88.0249 -183.175 0 365.716 -183.952 0 
362.005 -164.577 0 302.446 -83.0407 0 307.981 -99.8326 0 
295.02 -78.8744 0 278.038 -121.5 0 288.336 -168.821 0 
275.633 -176.473 0 323.484 -119.862 0 442.695 -127.878 0 
101.3 -45.5001 0 309.585 -110.928 0 75.064 -184.418 0 
415.667 -184.254 0 435.18 -164.506 0 401.213 -8.5 0 
396.173 -16.757 0 382.415 -8.5 0 387.144 -16.597 0 
192.511 -32.5704 0 204.433 -19.6375 0 126.688 -183.233 0 
505.257 -33.4412 0 531.497 -37.7904 0 217.379 -27.7423 0 
218.882 -19.7985 0 212.057 -33.8113 0 108.811 -109.797 0 
111.23 -120.174 0 488.103 -165.485 0 476.753 -121.91 0 
462.896 -71.9658 0 470.291 -99.7817 0 383.235 -68.2157 0 
375.628 -71.0401 0 119.662 -120.781 0 206.891 -40.4791 0 
202.319 -45.4409 0 469.478 -120.334 0 175.471 -160.634 0 
319.577 -110.974 0 80.3729 -118.637 0 211.063 -184.561 0 
85.7751 -90.3715 0 127.053 -99.8201 0 208.542 -160.665 0 
229.448 -166.264 0 189.198 -129.445 0 406.076 -61.704 0 
231.941 -142.741 0 505.862 -184.561 0 497.128 -45.4513 0 
425.725 -47.3291 0 95.1 -92.2325 0 190.519 -175.602 0 
472.466 -69.275 0 396.908 -32.3554 0 470.432 -39.6021 0 
291.849 -129.71 0 399.137 -165.04 0 225.372 -48.8132 0 
218.174 -51.8701 0 215.071 -58.4446 0 417.283 -148.402 0 
175.99 -39.247 0 107.378 -28.4853 0 361.695 -64.5859 0 
177.765 -83.6273 0 180.324 -133.938 0 507.607 -13.6653 0 
130.359 -42.8508 0 480.138 -54.6426 0 481.762 -108.026 0 
241.807 -42.948 0 470.105 -160.471 0 515.866 -153.502 0 
137.843 -50.5279 0 110.384 -41.0987 0 406.124 -107.199 0 
406.582 -87.6824 0 523.088 -155.75 0 524.247 -166.264 0 
514.296 -51.0475 0 509.883 -58.4573 0 102.66 -82.3483 0 
107.779 -74.8945 0 88.9226 -63.4328 0 95.1 -58.3808 0 
168.097 -144.414 0 422.13 -90.2761 0 377.88 -119.944 0 
368.639 -119.59 0 407.939 -41.6894 0 400.762 -25.3653 0 
486.366 -23.7495 0 299.185 -95.1784 0 292.732 -87.7084 0 
279.575 -165.106 0 315.112 -118.318 0 428.232 -117.786 0 
436.248 -59.0697 0 406.624 -179.905 0 412.327 -155.291 0 
141.282 -89.5062 0 132.563 -115.166 0 131.161 -106.846 0 
406.512 -169.662 0 426.231 -150.895 0 193.274 -22.0511 0 
523.167 -39.6026 0 216.806 -43.1697 0 485.212 -175.496 0 
468.614 -89.2643 0 472.877 -110.909 0 389.894 -78.5619 0 
419.964 -134.857 0 187.456 -102.935 0 208.526 -51.7707 0 
182.988 -168.111 0 418.904 -53.4565 0 413.89 -35.8655 0 
77.74 -95.463 0 76.0038 -103.531 0 223.228 -172.454 0 
73.2674 -146.869 0 86.0728 -108.753 0 73.4718 -57.4926 0 
74.3747 -79.787 0 307.56 -123.119 0 136.285 -82.0241 0 
316.928 -70.132 0 308.488 -73.8922 0 240.926 -154.84 0 
114.655 -23.9871 0 126.931 -54.5465 0 120.775 -43.8612 0 
407.559 -70.3647 0 224.283 -146.926 0 518.027 -172.454 0 
503.322 -51.7673 0 432.501 -41.6143 0 111.671 -66.0851 0 
84.6154 -81.0162 0 95.1 -76.7832 0 191.947 -166.13 0 
197.822 -159.477 0 198.019 -183.061 0 404.689 -34.285 0 
477.879 -32.193 0 283.978 -103.637 0 292.538 -148.762 0 
286.148 -146.151 0 302.379 -131.136 0 397.896 -110.079 0 
416.497 -44.5267 0 432.223 -89.4262 0 389.894 -116.814 0 
398.358 -141.126 0 396.715 -173.493 0 405.966 -160.218 0 
220.421 -63.8996 0 234.987 -50.1241 0 225.919 -58.067 0 
139.821 -107.504 0 140.977 -116.079 0 138.009 -124.593 0 
102.678 -91.6653 0 185.39 -29.8948 0 116.684 -33.0598 0 
176.782 -115.948 0 176.372 -142.057 0 519.112 -25.2835 0 
123.963 -23.163 0 131.717 -30.9175 0 482.637 -83.0913 0 
229.824 -30.8478 0 477.692 -168.016 0 188.231 -78.4985 0 
471.857 -138.98 0 175.386 -60.8205 0 512.665 -146.821 0 
507.12 -156.184 0 521.271 -136.529 0 103.4 -13.9463 0 
92.242 -24.9982 0 80.5249 -36.6042 0 536.319 -154.25 0 
515.369 -162.69 0 521.037 -58.7243 0 534.008 -47.4367 0 
103.213 -65.284 0 393.273 -156.958 0 434.125 -143.882 0 
372.034 -145.232 0 379.455 -149.118 0 112.086 -100.5 0 
361.695 -115.099 0 494.392 -15.7647 0 308.785 -89.9237 0 
301.16 -70.8617 0 302.554 -61.194 0 278.45 -182.591 0 
282.634 -169.4 0 272.469 -185.596 0 297.591 -155.93 0 
288.381 -159.49 0 313.151 -134.255 0 333.458 -105.967 0 
297.93 -139.66 0 435.998 -115.61 0 442.695 -82.5237 0 
442.695 -52.9052 0 141.754 -68.7159 0 131.302 -91.2804 0 
137.104 -98.9662 0 421.865 -177.982 0 416.784 -172.52 0 
425.272 -162.325 0 434.185 -154.312 0 414.578 -163.725 0 
199.926 -15.4332 0 498.125 -36.6882 0 537.584 -43.9374 0 
514.896 -34.5586 0 213.59 -14.4546 0 210.644 -24.4181 0 
[...]
CELL_DATA 1440
FIELD FieldData 1
medit:ref 1 1440 int
0 0 0 0 0 0 0 0 0 
0 0 0 0 0 0 0 0 0 
0 0 0 0 0 0 0 0 0 
0 0 0 0 0 0 0 0 0 
0 0 0 0 0 0 0 0 0 
0 0 0 0 0 0 0 0 0 
0 0 0 0 0 0 0 0 0 
0 0 0 0 0 0 0 0 0 
0 0 0 0 0 0 0 0 0 
0 0 0 0 0 0 0 0 0 
0 0 0 0 0 0 0 0 0 
0 0 0 0 0 0 0 0 0 
0 0 0 0 0 0 0 0 0 
0 0 0 0 0 0 0 0 0 
0 0 0 0 0 0 0 0 0 
0 0 0 0 0 0 0 0 0 
0 0 0 0 0 0 0 0 0 
0 0 0 0 0 0 0 0 0 
0 0 0 0 0 0 0 0 0 
0 0 0 0 0 0 0 0 0 
0 0 0 0 0 0 0 0 0 
0 0 0 0 0 0 0 0 0 
0 0 0 0 0 0 0 0 0 
0 0 0 0 0 0 0 0 0 
0 0 0 0 0 0 0 0 0 
0 0 0 0 0 0 0 0 0 
0 0 0 0 0 0 0 0 0 
0 0 0 0 0 0 0 0 0 
0 0 0 0 0 0 0 0 0 
0 0 0 0 0 0 0 0 0 
0 0 0 0 0 0 0 0 0 
0 0 0 0 0 0 0 0 0 
0 0 0 0 0 0 0 0 0 
0 0 0 0 0 0 0 0 0 
0 0 0 0 0 0 0 0 0 
0 0 0 0 0 0 0 0 0 
0 0 0 3 4 4 4 5 3 
6 4 4 3 8 3 3 8 3 
4 6 4 4 4 6 3 2 2 
4 4 4 4 6 4 4 6 8 
8 4 6 6 4 6 4 2 3 
2 6 2 4 6 6 6 6 2 
4 4 4 4 6 2 2 6 6 
6 4 4 6 8 6 4 6 6 
6 3 3 4 2 3 2 2 6 
8 2 4 4 8 4 4 4 4 
4 4 4 5 5 6 6 3 8 
4 4 4 4 8 8 8 3 4 
4 4 4 3 3 4 4 4 4 
4 4 4 4 3 8 8 3 4 
4 4 4 7 4 3 6 6 6 
4 4 4 4 4 4 3 6 6 
6 3 2 4 4 4 4 4 4 
3 4 4 4 3 3 6 6 6 
2 6 4 4 4 6 6 8 8 
8 8 7 7 4 4 7 7 6 
6 6 6 6 3 4 5 6 3 
4 4 5 3 3 3 2 4 4 
4 2 4 4 4 4 4 4 4 
4 2 6 2 2 2 2 2 4 
4 4 4 4 4 4 4 4 4 
7 6 6 6 6 6 6 6 6 
6 6 6 6 6 6 6 6 2 
2 2 7 2 2 5 5 5 5 
5 5 4 4 4 4 4 6 4 
6 6 6 6 6 6 6 6 6 
6 2 2 2 6 6 6 6 6 
6 6 6 4 4 4 4 4 4 
4 4 4 4 4 4 6 6 6 
6 8 8 8 8 8 8 8 8 
8 8 6 6 6 6 6 6 4 
4 4 4 4 4 4 6 6 6 
6 6 6 6 6 6 6 6 6 
6 3 3 3 3 3 3 4 4 
4 4 2 2 2 3 3 4 4 
4 4 4 4 4 4 4 2 2 
2 4 6 8 8 2 3 3 3 
6 3 4 3 4 4 4 8 4 
3 3 8 3 4 7 3 3 6 
6 2 2 6 5 4 3 6 6 
6 2 8 8 6 6 3 4 3 
2 4 2 2 3 2 2 3 2 
4 7 7 7 2 2 2 2 2 
2 5 4 4 4 4 6 2 8 
8 8 8 2 6 6 4 6 6 
6 2 2 6 6 8 8 8 8 
2 2 8 4 4 5 3 5 3 
3 6 6 3 3 8 4 4 4 
3 3 4 4 4 4 4 4 4 
4 4 4 8 4 3 3 3 3 
3 8 8 8 3 3 3 3 4 
4 4 7 7 7 3 3 3 6 
6 6 5 6 6 2 2 2 2 
2 6 6 6 6 4 5 4 4 
4 4 3 3 3 3 2 6 6 
6 2 8 8 8 8 8 8 8 
8 7 6 7 7 7 6 7 3 
3 3 3 3 3 3 3 5 4 
4 4 4 4 5 6 6 6 6 
3 5 2 2 2 2 4 4 4 
4 2 2 3 3 3 3 2 2 
2 3 3 3 6 2 2 2 4 
4 4 4 4 4 4 4 7 7 
7 7 7 7 7 7 7 2 2 
2 2 2 2 2 2 2 2 7 
2 2 5 5 5 5 5 5 5 
5 5 2 4 4 4 4 4 4 
4 4 4 4 4 4 4 6 6 
6 6 6 6 6 6 6 6 2 
8 8 8 8 8 8 8 8 8 
8 8 8 8 8 8 8 8 8 
8 8 8 8 8 8 8 8 8 
8 8 8 8 8 6 6 6 6 
6 6 6 6 6 6 4 4 4 
4 4 4 4 4 4 4 4 4 
4 4 4 6 6 6 6 6 6 
6 3 2 2 2 2 2 2 2 
2 2 2 2 2 3 3 3 3 
3 3 3 3 3 3 2 2 2 
2 2 6 6 6 3 7 6 7 
4 3 3 2 4 3 6 7 6 
6 8 4 2 6 6 6 3 2 
7 7 8 7 6 6 7 7 7 
7 7 7 4 3 3 3 3 5 
2 2 2 2 2 2 2 3 2 
3 3 6 6 7 6 6 6 6 
8 8 6 6 6 6 6 6 6 
4 2 2 2 2 6 4 6 6 
3 2 7 7 4 4 6 6 6 
2 8 6 6 5 7 7 4 3 
3 3 3 3 3 2 4 4 7 
2 2 3 3 3 6 2 7 3 
3 4 6 6 7 7 2 6 6 
6 6 6 6 2 3 8 6 6 
3 2 6 6 6 2 3 2 2 
2 6 6 6 6 6 6 6 2 
3 3 3 3 3 4 2 6 8 
2 6 8 8 7 8 7 6 7 
4 4 4 4 4 4 4 4 4 
3 3 3 7 3 6 6 6 2 
6 6 8 8 6 7 6 6 8 
6 6 7 7 7 7 8 7 3 
2 5 7 7 7 7 2 4 3 
2 3 3 3 3 7 3 6 3 
8 2 3 3 3 4 3 3 4 
2 2 2 2 2 2 3 3 2 
2 4 2 2 2 2 2 2 2 
8 3 3 6 3 3 3 2 2 
4 2 2 4 3 3 3 3 3 
3 3 4 3 3 3 3 6 6 
6 8 6 6 7 7 5 6 6 
6 6 6 6 6 6 7 6 5 
6 4 6 6 7 6 6 6 6 
6 6 6 8 8 8 8 8 8 
8 8 8 8 8 6 6 6 6 
4 6 6 4 6 6 6 6 6 
6 4 2 2 2 8 2 4 2 
2 2 2 2 6 2 8 2 8 
6 6 3 6 6 6 6 6 4 
6 6 3 6 6 6 7 8 8 

POINT_DATA 702
FIELD FieldData 1
mesh.sol:metric 1 702 double
10 10 10 10 10 10 10 10 10 
10 10 10 10 10 10 10 10 10 
10 10 10 10 10 10 10 10 10 
10 10 10 10 10 10 10 10 10 
10 10 10 10 10 10 10 10 10 
10 10 10 10 10 10 10 10 10 
10 10 10 10 10 10 10 10 10 
10 10 10 10 10 10 10 10 10 
10 10 10 10 10 10 10 10 10 
10 10 10 10 10 10 10 10 10 
10 10 10 10 10 10 10 10 10 
10 10 10 10 10 10 10 10 10 
10 10 10 10 10 10 10 10 10 
10 10 10 10 10 10 10 10 10 
10 10 10 10 10 10 10 10 10 
10 10 10 10 10 10 10 10 10 
10 10 10 10 10 10 10 10 10 
10 10 10 10 10 10 10 10 10 
10 10 10 10 10 10 10 10 10 
10 10 10 10 10 10 10 10 10 
10 10 10 10 10 10 10 10 10 
10 10 10 10 10 10 10 10 10 
10 10 10 10 10 10 10 10 10 
10 10 10 10 10 10 10 10 10 
10 10 10 10 10 10 10 10 10 
10 10 10 10 10 10 10 10 10 
10 10 10 10 10 10 10 10 10 
10 10 10 10 10 10 10 10 10 
10 10 10 10 10 10 10 10 10 
10 10 10 10 10 10 10 10 10 
10 10 10 10 10 10 10 10 10 
10 10 10 10 10 10 10 10 10 
10 10 10 10 10 10 10 10 10 
10 10 10 10 10 10 10 10 10 
10 10 10 10 10 10 10 10 10 
10 10 10 10 10 10 10 10 10 
10 10 10 10 10 10 10 10 10 
10 10 10 10 10 10 10 10 10 
10 10 10 10 10 10 10 10 10 
10 10 10 10 10 10 10 10 10 
10 10 10 10 10 10 10 10 10 
10 10 10 10 10 10 10 10 10 
10 10 10 10 10 10 10 10 10 
10 10 10 10 10 10 10 10 10 
10 10 10 10 10 10 10 10 10 
10 10 10 10 10 10 10 10 10 
10 10 10 10 10 10 10 10 10 
10 10 10 10 10 10 10 10 10 
10 10 10 10 10 10 10 10 10 
10 10 10 10 10 10 10 10 10 
10 10 10 10 10 10 10 10 10 
10 10 10 10 10 10 10 10 10 
10 10 10 10 10 10 10 10 10 
10 10 10 10 10 10 10 10 10 
10 10 10 10 10 10 10 10 10 
10 10 10 10 10 10 10 10 10 
10 10 10 10 10 10 10 10 10 
10 10 10 10 10 10 10 10 10 
10 10 10 10 10 10 10 10 10 
10 10 10 10 10 10 10 10 10 
10 10 10 10 10 10 10 10 10 
10 10 10 10 10 10 10 10 10 
10 10 10 10 10 10 10 10 10 
10 10 10 10 10 10 10 10 10 
10 10 10 10 10 10 10 10 10 
10 10 10 10 10 10 10 10 10 
10 10 10 10 10 10 10 10 10 
10 10 10 10 10 10 10 10 10 
10 10 10 10 10 10 10 10 10 
10 10 10 10 10 10 10 10 10 
10 10 10 10 10 10 10 10 10 
10 10 10 10 10 10 10 10 10 
10 10 10 10 10 10 10 10 10 
10 10 10 10 10 10 10 10 10 
10 10 10 10 10 10 10 10 10 
10 10 10 10 10 10 10 10 10 
10 10 10 10 10 10 10 10 10 
10 10 10 10 10 10 10 10 10 

