# vtk DataFile Version 5.1
vtk output
ASCII
DATASET UNSTRUCTURED_GRID
POINTS 26 float
0 0 0 1 0 0 1 1 0 
0 1 0 0.828665 0.814528 0 0.419287 0.393238 0 
0.199603 0.76555 0 1 0.204149 0 0.78567 0.336886 0 
0.623672 0.761338 0 0.237883 0.231709 0 1 0.435241 0 
0.210577 0.504206 0 0.595124 0.283152 0 1 0.716542 0 
0.406696 0.654724 0 0 0.668818 0 0.807384 0.594758 0 
0.705209 0 0 0 0.311194 0 0.459156 0.18162 0 
0.71227 1 0 0.606302 0.504016 0 0.338281 0 0 
0.380746 1 0 0.852605 0.102075 0 
CELLS 51 137
OFFSETS vtktypeint64
0 2 4 6 8 10 12 14 16 
18 20 22 24 26 29 32 35 38 
41 44 47 50 53 56 59 62 65 
68 71 74 77 80 83 86 89 92 
95 98 101 104 107 110 113 116 119 
122 125 128 131 134 137 
CONNECTIVITY vtktypeint64
23 18 2 21 16 19 19 0 21 
24 11 14 14 2 7 11 3 16 
0 23 24 3 18 1 1 7 23 
18 20 5 22 15 12 15 6 21 
4 2 17 9 22 16 19 12 0 
10 19 10 5 12 19 10 12 4 
17 14 8 25 7 24 9 21 17 
11 14 9 4 21 22 9 15 9 
17 4 8 11 17 4 14 2 5 
13 22 22 8 17 8 7 11 18 
13 20 5 15 12 16 6 3 12 
6 16 5 20 13 5 10 20 23 
20 10 0 23 10 6 24 3 13 
18 25 18 1 25 25 1 7 13 
25 8 13 8 22 15 24 6 15 
9 24 
CELL_TYPES 50
3
3
3
3
3
3
3
3
3
3
3
3
3
5
5
5
5
5
5
5
5
5
5
5
5
5
5
5
5
5
5
5
5
5
5
5
5
5
5
5
5
5
5
5
5
5
5
5
5
5

POINT_DATA 26
FIELD FieldData 1
mesh.sol:metric 1 26 double
2 2 2 2 2 2 2 2 2 
2 2 2 2 2 2 2 2 2 
2 2 2 2 2 2 2 2 
